chemcompute.org
{'UTCtimestamp': '2022-10-04T21:16:39.844628', 'cluster': 'jetstream2', 'clusterJobNumber': '120800', 'status': 'RUNNING', 'nodeList': 'chemcompute-node-0'}
----- GAMESS execution script 'rungms' -----
This job is running on host chemcompute-node-0.novalocal
under operating system Linux at Tue Oct 4 21:16:43 UTC 2022
SLURM has assigned the following compute nodes to this run:
Available scratch disk space (Kbyte units) at beginning of the job is
Filesystem     1K-blocks     Used Available Use% Mounted on
/dev/sda1       62903276 11821568  51081708  19% /
GAMESS temporary binary files will be written to /scratch/120800
GAMESS supplementary output files will be written to /data/slurm/46/460757
Copying input file 460757.inp to your run's scratch directory...
The generated host list is
chemcompute-node-0.novalocal

 Distributed Data Interface kickoff program.
 Initiating 1 compute processes on 1 nodes to run the following command:
 /data/gamess-2019R1-avx2-ddi/gamess.00.x 460757 

          ******************************************************
          *         GAMESS VERSION = 30 JUN 2019 (R1)          *
          *             FROM IOWA STATE UNIVERSITY             *
          * M.W.SCHMIDT, K.K.BALDRIDGE, J.A.BOATZ, S.T.ELBERT, *
          *   M.S.GORDON, J.H.JENSEN, S.KOSEKI, N.MATSUNAGA,   *
          *          K.A.NGUYEN, S.J.SU, T.L.WINDUS,           *
          *       TOGETHER WITH M.DUPUIS, J.A.MONTGOMERY       *
          *         J.COMPUT.CHEM.  14, 1347-1363(1993)        *
          **************** 64 BIT INTEL VERSION ****************

  SINCE 1993, STUDENTS AND POSTDOCS WORKING AT IOWA STATE UNIVERSITY
  AND ALSO IN THEIR VARIOUS JOBS AFTER LEAVING ISU HAVE MADE IMPORTANT
  CONTRIBUTIONS TO THE CODE:
     IVANA ADAMOVIC, CHRISTINE AIKENS, YURI ALEXEEV, POOJA ARORA,
     ANDREY ASADCHEV, ROB BELL, PRADIPTA BANDYOPADHYAY, JONATHAN BENTZ,
     COLLEEN BERTONI, BRETT BODE, KURT BRORSEN, CALEB CARLIN, GALINA CHABAN,
     WEI CHEN, CHEOL HO CHOI, PAUL DAY, ALBERT DEFUSCO, NUWAN DESILVA,
     TIM DUDLEY, DMITRI FEDOROV, ALEX FINDLATER, GRAHAM FLETCHER, 
     MARK FREITAG, KURT GLAESEMANN, ANASTASIA GUNINA,
     DAN KEMP, GRANT MERRILL, NORIYUKI MINEZAWA, JONATHAN MULLIN,
     TAKESHI NAGATA, SEAN NEDD, HEATHER NETZLOFF, BOSILJKA NJEGIC, RYAN OLSON,
     MIKE PAK, BUU PHAM,
     SPENCER PRUITT, LUKE ROSKOP, JIM SHOEMAKER, LYUDMILA SLIPCHENKO,
     TONY SMITH, SAROM SOK LEANG, JIE SONG, TETSUYA TAKETSUGU, SIMON WEBB,
     PENG XU, SOOHAENG YOO, FEDERICO ZAHARIEV

  ADDITIONAL CODE HAS BEEN PROVIDED BY COLLABORATORS IN OTHER GROUPS:
     IOWA STATE UNIVERSITY:
          JOE IVANIC, AARON WEST, LAIMUTIS BYTAUTAS, KLAUS RUEDENBERG
     UNIVERSITY OF TOKYO: KIMIHIKO HIRAO, TAKAHITO NAKAJIMA,
          TAKAO TSUNEDA, MUNEAKI KAMIYA, SUSUMU YANAGISAWA,
          KIYOSHI YAGI, MAHITO CHIBA, SEIKEN TOKURA, NAOAKI KAWAKAMI
     UNIVERSITY OF AARHUS: FRANK JENSEN
     UNIVERSITY OF IOWA: VISVALDAS KAIRYS, HUI LI
     NATIONAL INST. OF STANDARDS AND TECHNOLOGY: WALT STEVENS, DAVID GARMER
     UNIVERSITY OF PISA: BENEDETTA MENNUCCI, JACOPO TOMASI
     UNIVERSITY OF MEMPHIS: HENRY KURTZ, PRAKASHAN KORAMBATH
     UNIVERSITY OF ALBERTA: TOBY ZENG, MARIUSZ KLOBUKOWSKI
     UNIVERSITY OF NEW ENGLAND: MARK SPACKMAN
     MIE UNIVERSITY: HIROAKI UMEDA
     NAT. INST. OF ADVANCED INDUSTRIAL SCIENCE AND TECHNOLOGY: KAZUO KITAURA
     MICHIGAN STATE UNIVERSITY:
          KAROL KOWALSKI, MARTA WLOCH, JEFFREY GOUR, JESSE LUTZ,
          WEI LI, JUN SHEN, J. EMILIANO DEUSTUA, PIOTR PIECUCH
     UNIVERSITY OF MINNESOTA:
          YINAN SHU
     UNIVERSITY OF SILESIA: MONIKA MUSIAL, STANISLAW KUCHARSKI
     FACULTES UNIVERSITAIRES NOTRE-DAME DE LA PAIX:
          OLIVIER QUINET, BENOIT CHAMPAGNE
     UNIVERSITY OF CALIFORNIA - SANTA BARBARA: BERNARD KIRTMAN
     INSTITUTE FOR MOLECULAR SCIENCE:
          KAZUYA ISHIMURA, MICHIO KATOUDA, AND SHIGERU NAGASE
     UNIVERSITY OF NOTRE DAME: ANNA POMOGAEVA, DAN CHIPMAN
     KYUSHU UNIVERSITY:
          HARUYUKI NAKANO,
          FENG LONG GU, JACEK KORCHOWIEC, MARCIN MAKOWSKI, AND YURIKO AOKI,
          HIROTOSHI MORI AND EISAKU MIYOSHI
     PENNSYLVANIA STATE UNIVERSITY:
          TZVETELIN IORDANOV, CHET SWALINA, JONATHAN SKONE,
          SHARON HAMMES-SCHIFFER
     WASEDA UNIVERSITY:
          MASATO KOBAYASHI, TOMOKO AKAMA, TSUGUKI TOUMA,
          TAKESHI YOSHIKAWA, YASUHIRO IKABATA, JUNJI SEINO,
          YUYA NAKAJIMA, HIROMI NAKAI
     NANJING UNIVERSITY: SHUHUA LI
     UNIVERSITY OF NEBRASKA:
          PEIFENG SU, DEJUN SI, NANDUN THELLAMUREGE, YALI WANG, HUI LI
     UNIVERSITY OF ZURICH: ROBERTO PEVERATI, KIM BALDRIDGE
     N. COPERNICUS UNIVERSITY AND JACKSON STATE UNIVERSITY:
          MARIA BARYSZ
     UNIVERSITY OF COPENHAGEN: Jimmy Kromann, CASPER STEINMANN
     TOKYO INSTITUTE OF TECHNOLOGY: HIROYA NAKATA
     NAGOYA UNIVERSITY: YOSHIO NISHIMOTO, STEPHAN IRLE
     MOSCOW STATE UNIVERSITY: VLADIMIR MIRONOV
     A.N.NESMEYANOV INSTITUTE OF ORGANOELEMENT COMPOUNDS OF RUSSIAN ACADEMY OF SCIENCES:
          IGOR S. GERASIMOV

 EXECUTION OF GAMESS BEGUN Tue Oct  4 21:16:43 2022

            ECHO OF THE FIRST FEW INPUT CARDS -
 INPUT CARD>!                                                                               
 INPUT CARD>!   GAMESS Calculation input file                                               
 INPUT CARD>!   Molecula de prueba JIMB                                                     
 INPUT CARD>!                                                                               
 INPUT CARD> $CONTRL SCFTYP=RHF MAXIT=200 RUNTYP=OPTIMIZE                                   
 INPUT CARD>         COORD=UNIQUE MULT=1                                                    
 INPUT CARD>         ICHARG=0                                                               
 INPUT CARD>         DFTTYP=B3LYP                                                           
 INPUT CARD>         MOLPLT=.FALSE. PLTORB=.FALSE.  $END                                    
 INPUT CARD> $SYSTEM TIMLIM=2879 MWORDS=250  $END                                           
 INPUT CARD>                                                                                
 INPUT CARD> $FORCE METHOD=SEMINUM NVIB=2 $END                                              
 INPUT CARD> $STATPT OPTTOL=0.0005 NSTEP=999 $END                                           
 INPUT CARD> $STATPT IHREP=0 HSSEND=.TRUE.  $END                                            
 INPUT CARD>                                                                                
 INPUT CARD> $DFT    METHOD=GRID  NLEB=590  $END                                            
 INPUT CARD>                                                                                
 INPUT CARD> $BASIS  GBASIS=N31 NGAUSS=6                                                    
 INPUT CARD>         NDFUNC=1   NPFUNC=0  $END                                              
 INPUT CARD>                                                                                
 INPUT CARD> $SCF    DIRSCF=.T. $END                                                        
 INPUT CARD> $GUESS  GUESS=HUCKEL  $END                                                     
 INPUT CARD>                                                                                
 INPUT CARD> $DATA                                                                          
 INPUT CARD>   Molecula de prueba JIMB                                                      
 INPUT CARD>  C1                                                                            
 INPUT CARD>O     8.0    -0.76247     1.23977     0.13424                                   
 INPUT CARD>C     6.0    -0.90019     0.03208    -0.03061                                   
 INPUT CARD>C     6.0     0.23081    -0.92701    -0.08556                                   
 INPUT CARD>C     6.0     1.50413    -0.50148    -0.03354                                   
 INPUT CARD>H     1.0    -1.89361    -0.42460    -0.15087                                   
 INPUT CARD>H     1.0    -0.01568    -1.97476    -0.17287                                   
 INPUT CARD>H     1.0     1.74353     0.55234     0.05059                                   
 INPUT CARD>H     1.0     2.32753    -1.20221    -0.07470                                   
 INPUT CARD> $END                                                                           
 INPUT CARD>                                                                                
 INPUT CARD>                                                                                
 INPUT CARD>! Customizations after this line are persisted when using Do More Calculations  
  250000000 WORDS OF MEMORY AVAILABLE

     BASIS OPTIONS
     -------------
     GBASIS=N31          IGAUSS=       6      POLAR=POPN31  
     NDFUNC=       1     NFFUNC=       0     DIFFSP=       F
     NPFUNC=       0      DIFFS=       F     BASNAM=        


     RUN TITLE
     ---------
    Molecula de prueba JIMB                                                      

 THE POINT GROUP OF THE MOLECULE IS C1      
 THE ORDER OF THE PRINCIPAL AXIS IS     0

 ATOM      ATOMIC                      COORDINATES (BOHR)
           CHARGE         X                   Y                   Z
 O           8.0    -1.4408593739        2.3428255878        0.2536768166
 C           6.0    -1.7011124369        0.0606224097       -0.0578445125
 C           6.0     0.4361676552       -1.7517948879       -0.1616849555
 C           6.0     2.8423935499       -0.9476597883       -0.0633814096
 H           1.0    -3.5784040276       -0.8023776544       -0.2851029598
 H           1.0    -0.0296309035       -3.7317552915       -0.3266769315
 H           1.0     3.2947939514        1.0437712521        0.0956012377
 H           1.0     4.3983939282       -2.2718474797       -0.1411625313

          INTERNUCLEAR DISTANCES (ANGS.)
          ------------------------------

                1 O          2 C          3 C          4 C          5 H     

   1 O       0.0000000    1.2266448 *  2.3937111 *  2.8631412 *  2.0324598 *
   2 C       1.2266448 *  0.0000000    1.4839252 *  2.4628133 *  1.0999556 *
   3 C       2.3937111 *  1.4839252 *  0.0000000    1.3435497 *  2.1839967 *
   4 C       2.8631412 *  2.4628133 *  1.3435497 *  0.0000000    3.4006343  
   5 H       2.0324598 *  1.0999556 *  2.1839967 *  3.4006343    0.0000000  
   6 H       3.3143951    2.1977267 *  1.0798891 *  2.1212707 *  2.4351799 *
   7 H       2.5999218 *  2.6956482 *  2.1202205 *  1.0839404 *  3.7714434  
   8 H       3.9439856    3.4559503    2.1147311 *  1.0819909 *  4.2928431  

                6 H          7 H          8 H     

   1 O       3.3143951    2.5999218 *  3.9439856  
   2 C       2.1977267 *  2.6956482 *  3.4559503  
   3 C       1.0798891 *  2.1202205 *  2.1147311 *
   4 C       2.1212707 *  1.0839404 *  1.0819909 *
   5 H       2.4351799 *  3.7714434    4.2928431  
   6 H       0.0000000    3.0872299    2.4692315 *
   7 H       3.0872299    0.0000000    1.8534291 *
   8 H       2.4692315 *  1.8534291 *  0.0000000  

  * ... LESS THAN  3.000


     ATOMIC BASIS SET
     ----------------
 THE CONTRACTED PRIMITIVE FUNCTIONS HAVE BEEN UNNORMALIZED
 THE CONTRACTED BASIS FUNCTIONS ARE NOW NORMALIZED TO UNITY

  SHELL TYPE  PRIMITIVE        EXPONENT          CONTRACTION COEFFICIENT(S)

 O         

      1   S       1          5484.6716600    0.001831074430
      1   S       2           825.2349460    0.013950172200
      1   S       3           188.0469580    0.068445078098
      1   S       4            52.9645000    0.232714335992
      1   S       5            16.8975704    0.470192897984
      1   S       6             5.7996353    0.358520852987

      2   L       7            15.5396162   -0.110777549525    0.070874268231
      2   L       8             3.5999336   -0.148026262701    0.339752839147
      2   L       9             1.0137618    1.130767015354    0.727158577316

      3   L      10             0.2700058    1.000000000000    1.000000000000

      4   D      11             0.8000000    1.000000000000

 C         

      5   S      12          3047.5248800    0.001834737132
      5   S      13           457.3695180    0.014037322813
      5   S      14           103.9486850    0.068842622264
      5   S      15            29.2101553    0.232184443216
      5   S      16             9.2866630    0.467941348435
      5   S      17             3.1639270    0.362311985337

      6   L      18             7.8682723   -0.119332419775    0.068999066591
      6   L      19             1.8812885   -0.160854151696    0.316423960957
      6   L      20             0.5442493    1.143456437840    0.744308290898

      7   L      21             0.1687145    1.000000000000    1.000000000000

      8   D      22             0.8000000    1.000000000000

 C         

      9   S      23          3047.5248800    0.001834737132
      9   S      24           457.3695180    0.014037322813
      9   S      25           103.9486850    0.068842622264
      9   S      26            29.2101553    0.232184443216
      9   S      27             9.2866630    0.467941348435
      9   S      28             3.1639270    0.362311985337

     10   L      29             7.8682723   -0.119332419775    0.068999066591
     10   L      30             1.8812885   -0.160854151696    0.316423960957
     10   L      31             0.5442493    1.143456437840    0.744308290898

     11   L      32             0.1687145    1.000000000000    1.000000000000

     12   D      33             0.8000000    1.000000000000

 C         

     13   S      34          3047.5248800    0.001834737132
     13   S      35           457.3695180    0.014037322813
     13   S      36           103.9486850    0.068842622264
     13   S      37            29.2101553    0.232184443216
     13   S      38             9.2866630    0.467941348435
     13   S      39             3.1639270    0.362311985337

     14   L      40             7.8682723   -0.119332419775    0.068999066591
     14   L      41             1.8812885   -0.160854151696    0.316423960957
     14   L      42             0.5442493    1.143456437840    0.744308290898

     15   L      43             0.1687145    1.000000000000    1.000000000000

     16   D      44             0.8000000    1.000000000000

 H         

     17   S      45            18.7311370    0.033494604338
     17   S      46             2.8253944    0.234726953484
     17   S      47             0.6401217    0.813757326146

     18   S      48             0.1612778    1.000000000000

 H         

     19   S      49            18.7311370    0.033494604338
     19   S      50             2.8253944    0.234726953484
     19   S      51             0.6401217    0.813757326146

     20   S      52             0.1612778    1.000000000000

 H         

     21   S      53            18.7311370    0.033494604338
     21   S      54             2.8253944    0.234726953484
     21   S      55             0.6401217    0.813757326146

     22   S      56             0.1612778    1.000000000000

 H         

     23   S      57            18.7311370    0.033494604338
     23   S      58             2.8253944    0.234726953484
     23   S      59             0.6401217    0.813757326146

     24   S      60             0.1612778    1.000000000000

 TOTAL NUMBER OF BASIS SET SHELLS             =   24
 NUMBER OF CARTESIAN GAUSSIAN BASIS FUNCTIONS =   68
 NUMBER OF ELECTRONS                          =   30
 CHARGE OF MOLECULE                           =    0
 SPIN MULTIPLICITY                            =    1
 NUMBER OF OCCUPIED ORBITALS (ALPHA)          =   15
 NUMBER OF OCCUPIED ORBITALS (BETA )          =   15
 TOTAL NUMBER OF ATOMS                        =    8
 THE NUCLEAR REPULSION ENERGY IS      104.2711521759

 SELECTED MURRAY-HANDY-LAMING RADIAL GRID

 LEGACY BECKE'S FUZZY CELL METHOD

 SELECTED ORIGINAL BECKE'S PARTITION FUNCTION

     LEBEDEV GRID-BASED DFT OPTIONS
     ------------------------------
     DFTTYP=B3LYP   
     NRAD  =      96     NLEB  =     590
     NRAD0 =      24     NLEB0 =     110
     SWOFF =    5.00E-03 (PURE SCF -> DFT)
     SWITCH=    3.00E-04 (COARSE -> TIGHT GRID)
     THRESH=    0.00E+00 GTHRE=    1.00E+00

 GRIMME'S EMPIRICAL DISPERSION CORRECTION= F

     $CONTRL OPTIONS
     ---------------
 SCFTYP=RHF          RUNTYP=OPTIMIZE     EXETYP=RUN     
 MPLEVL=       0     CITYP =NONE         CCTYP =NONE         VBTYP =NONE    
 DFTTYP=B3LYP        TDDFT =NONE    
 MULT  =       1     ICHARG=       0     NZVAR =       0     COORD =UNIQUE  
 PP    =NONE         RELWFN=NONE         LOCAL =NONE         NUMGRD=       F
 ISPHER=      -1     NOSYM =       0     MAXIT =     200     UNITS =ANGS    
 PLTORB=       F     MOLPLT=       F     AIMPAC=       F     FRIEND=        
 NPRINT=       7     IREST =       0     GEOM  =INPUT   
 NORMF =       0     NORMP =       0     ITOL  =      20     ICUT  =       9
 INTTYP=BEST         GRDTYP=BEST         QMTTOL= 1.0E-06

     $SYSTEM OPTIONS
     ---------------
  REPLICATED MEMORY=   250000000 WORDS (ON EVERY NODE).
 DISTRIBUTED MEMDDI=           0 MILLION WORDS IN AGGREGATE,
 MEMDDI DISTRIBUTED OVER   1 PROCESSORS IS           0 WORDS/PROCESSOR.
 TOTAL MEMORY REQUESTED ON EACH PROCESSOR=   250000000 WORDS.
 TIMLIM=        2879.00 MINUTES, OR       2.0 DAYS.
 PARALL= F  BALTYP=  DLB     KDIAG=    0  COREFL= F
 MXSEQ2=     300 MXSEQ3=     150  mem10=         0

          ----------------
          PROPERTIES INPUT
          ----------------

     MOMENTS            FIELD           POTENTIAL          DENSITY
 IEMOM =       1   IEFLD =       0   IEPOT =       0   IEDEN =       0
 WHERE =COMASS     WHERE =NUCLEI     WHERE =NUCLEI     WHERE =NUCLEI  
 OUTPUT=BOTH       OUTPUT=BOTH       OUTPUT=BOTH       OUTPUT=BOTH    
 IEMINT=       0   IEFINT=       0                     IEDINT=       0
                                                       MORB  =       0
          EXTRAPOLATION IN EFFECT
          DIIS IN EFFECT
 ORBITAL PRINTING OPTION: NPREO=     1    68     2     1

     -------------------------------
     INTEGRAL TRANSFORMATION OPTIONS
     -------------------------------
     NWORD  =            0
     CUTOFF = 1.0E-09     MPTRAN =       0
     DIRTRF =       T     AOINTS =DUP     

          ----------------------
          INTEGRAL INPUT OPTIONS
          ----------------------
 NOPK  =       1 NORDER=       0 SCHWRZ=       T

     ------------------------------------------
     THE POINT GROUP IS C1 , NAXIS= 0, ORDER= 1
     ------------------------------------------

     DIMENSIONS OF THE SYMMETRY SUBSPACES ARE
 A   =   68

 ..... DONE SETTING UP THE RUN .....
 STEP CPU TIME =     0.03 TOTAL CPU TIME =          0.0 (      0.0 MIN)
 TOTAL WALL CLOCK TIME=          0.0 SECONDS, CPU UTILIZATION IS    60.00%


          -----------------------------
          STATIONARY POINT LOCATION RUN
          -----------------------------

 OBTAINING INITIAL HESSIAN, HESS=GUESS   
 CARTESIAN COORDINATE OPTIMIZATION USING BADGER'S RULE FORCE CONSTANT GUESS

          PARAMETERS CONTROLLING GEOMETRY SEARCH ARE
          METHOD =QA                  UPHESS =BFGS    
          NNEG   =         0          NFRZ   =         0
          NSTEP  =       999          IFOLOW =         1
          HESS   =GUESS               RESTAR =         F
          IHREP  =         0          HSSEND =         T
          NPRT   =         0          NPUN   =         0
          OPTTOL = 5.000E-04          RMIN   = 1.500E-03
          RMAX   = 1.000E-01          RLIM   = 7.000E-02
          DXMAX  = 3.000E-01          PURIFY =         F
          MOVIE  =         F          TRUPD  =         T
          TRMAX  = 5.000E-01          TRMIN  = 5.000E-02
          ITBMAT =         5          STPT   =         F
          STSTEP = 1.000E-02          PROJCT=          T

 BEGINNING GEOMETRY SEARCH POINT NSERCH=   0 ...

 COORDINATES OF ALL ATOMS ARE (ANGS)
   ATOM   CHARGE       X              Y              Z
 ------------------------------------------------------------
 O           8.0  -0.7624700000   1.2397700000   0.1342400000
 C           6.0  -0.9001900000   0.0320800000  -0.0306100000
 C           6.0   0.2308100000  -0.9270100000  -0.0855600000
 C           6.0   1.5041300000  -0.5014800000  -0.0335400000
 H           1.0  -1.8936100000  -0.4246000000  -0.1508700000
 H           1.0  -0.0156800000  -1.9747600000  -0.1728700000
 H           1.0   1.7435300000   0.5523400000   0.0505900000
 H           1.0   2.3275300000  -1.2022100000  -0.0747000000

          ********************
          1 ELECTRON INTEGRALS
          ********************
 ...... END OF ONE-ELECTRON INTEGRALS ......
 STEP CPU TIME =     0.01 TOTAL CPU TIME =          0.0 (      0.0 MIN)
 TOTAL WALL CLOCK TIME=          0.1 SECONDS, CPU UTILIZATION IS    66.67%

          -------------
          GUESS OPTIONS
          -------------
          GUESS =HUCKEL            NORB  =       0          NORDER=       0
          MIX   =       F          PRTMO =       F          PUNMO =       F
          TOLZ  = 1.0E-08          TOLE  = 1.0E-05
          SYMDEN=       F          PURIFY=       F

 INITIAL GUESS ORBITALS GENERATED BY HUCKEL   ROUTINE.
 HUCKEL GUESS REQUIRES     42032 WORDS.

 SYMMETRIES FOR INITIAL GUESS ORBITALS FOLLOW.   BOTH SET(S).
    15 ORBITALS ARE OCCUPIED (    4 CORE ORBITALS).
     5=A        6=A        7=A        8=A        9=A       10=A       11=A   
    12=A       13=A       14=A       15=A       16=A       17=A       18=A   
    19=A       20=A       21=A       22=A       23=A       24=A       25=A   
 ...... END OF INITIAL ORBITAL SELECTION ......
 STEP CPU TIME =     0.01 TOTAL CPU TIME =          0.0 (      0.0 MIN)
 TOTAL WALL CLOCK TIME=          0.1 SECONDS, CPU UTILIZATION IS    62.50%

                    ----------------------
                    AO INTEGRAL TECHNOLOGY
                    ----------------------
     S,P,L SHELL ROTATED AXIS INTEGRALS, REPROGRAMMED BY
        KAZUYA ISHIMURA (IMS) AND JOSE SIERRA (SYNSTAR).
     S,P,D,L SHELL ROTATED AXIS INTEGRALS PROGRAMMED BY
        KAZUYA ISHIMURA (INSTITUTE FOR MOLECULAR SCIENCE).
     S,P,D,F,G SHELL TO TOTAL QUARTET ANGULAR MOMENTUM SUM 5,
        ERIC PROGRAM BY GRAHAM FLETCHER (ELORET AND NASA ADVANCED
        SUPERCOMPUTING DIVISION, AMES RESEARCH CENTER).
     S,P,D,F,G,L SHELL GENERAL RYS QUADRATURE PROGRAMMED BY
        MICHEL DUPUIS (PACIFIC NORTHWEST NATIONAL LABORATORY).

          --------------------
          2 ELECTRON INTEGRALS
          --------------------

 DIRECT SCF METHOD SKIPS INTEGRAL STORAGE ON DISK.
 DIRECT TRANSFORMATION SKIPS AO INTEGRAL STORAGE ON DISK.
  ...... END OF TWO-ELECTRON INTEGRALS .....
 STEP CPU TIME =     0.00 TOTAL CPU TIME =          0.0 (      0.0 MIN)
 TOTAL WALL CLOCK TIME=          0.1 SECONDS, CPU UTILIZATION IS    55.56%

          --------------------------
             R-B3LYP SCF CALCULATION
          --------------------------

     NUCLEAR ENERGY =       104.2711521759
     MAXIT =  200     NPUNCH=    2
     EXTRAP=T  DAMP=F  SHIFT=F  RSTRCT=F  DIIS=T  DEM=F  SOSCF=F
         DENSITY MATRIX CONVERGENCE THRESHOLD=  2.00E-05
     COARSE -> FINE DFT GRID SWITCH THRESHOLD=  3.00E-04 (SWITCH IN $DFT)
                   HF -> DFT SWITCH THRESHOLD=  5.00E-03 (SWOFF IN $DFT)
     MEMORY REQUIRED FOR RHF ITERS=    620217 WORDS.

 DIRECT SCF CALCULATION, SCHWRZ=T   FDIFF=T,  DIRTHR=  0.00E+00 NITDIR=10
 SCHWARZ INEQUALITY OVERHEAD:      2344 INTEGRALS, T=        0.00

 DFT CODE IS SWITCHING FROM THE FINE GRID NRAD= 96,  NLEB=  590
                      TO THE COARSE GRID NRAD0= 24, NLEB0=  110

     EXCHANGE FUNCTIONAL   =B88&HFX   
     CORRELATION FUNCTIONAL=LYP88&VWN5
     DFT THRESHOLD         =.883E-08
     GRID CHANGE THRESHOLD =.300E-03
 FOR AN EULER-MACLAURIN QUADRATURE USING  96 RADIAL POINTS:
 SMALLEST GAUSSIAN PRIMITIVE EXPONENT=        0.1612777588 OF TYPE -S-
 ON ATOM NUMBER   5 HAS RADIAL NORMALIZATION=  1.000000
  LARGEST GAUSSIAN PRIMITIVE EXPONENT=     5484.6716600000 OF TYPE -S-
 ON ATOM NUMBER   1 HAS RADIAL NORMALIZATION=  1.000000
 DFT IS SWITCHED OFF, PERFORMING PURE SCF UNTIL SWOFF THRESHOLD IS REACHED.

                                                                                   NONZERO     BLOCKS
 ITER EX DEM     TOTAL ENERGY        E CHANGE  DENSITY CHANGE    DIIS ERROR      INTEGRALS    SKIPPED
          * * *   INITIATING DIIS PROCEDURE   * * *
   1  0  0     -190.2087054765  -190.2087054765   0.286709588   0.406438029        2644341       3474
   2  1  0     -190.6939966528    -0.4852911763   0.146193132   0.107998176        2643820       3777
   3  2  0     -190.7329807904    -0.0389841376   0.070122295   0.068731486        2639547       4260
   4  3  0     -190.7558057071    -0.0228249167   0.010891175   0.008504089        2633027       4681
   5  4  0     -190.7564434622    -0.0006377552   0.006518705   0.002995313        2617990       5374
   6  5  0     -190.7565601599    -0.0001166976   0.002887716   0.001061571        2605716       5877
 CONVERGED TO SWOFF, SO DFT CALCULATION IS NOW SWITCHED ON.
          * * *   INITIATING DIIS PROCEDURE   * * *
   7  6  0     -191.7777665266    -1.0212063668   0.124874159   0.081429218        2644266       3468
   8  7  0     -191.7953186337    -0.0175521071   0.074617592   0.032213523        2640254       4137
   9  8  0     -191.7900700133     0.0052486204   0.058242441   0.049801826        2634149       4558
  10  9  0     -191.7997300745    -0.0096600611   0.009227721   0.007339171        2628116       4865
  11 10  0     -191.8000529535    -0.0003228791   0.001032155   0.000993174        2608624       5664
  12 11  0     -191.8000558606    -0.0000029071   0.000620037   0.000385506        2577279       7042
  13 12  0     -191.8000564499    -0.0000005893   0.000173858   0.000141418        2541640       8248
 DFT CODE IS SWITCHING BACK TO THE FINE GRID
          * * *   INITIATING DIIS PROCEDURE   * * *
  14 13  0     -191.7980898961     0.0019665538   0.004074487   0.001790418        2644491       3427
  15 14  0     -191.7980987919    -0.0000088958   0.000451628   0.000230016        2599456       6320
  16 15  0     -191.7980986998     0.0000000921   0.000328741   0.000273339        2547779       8142
  17 16  0     -191.7980989620    -0.0000002622   0.000116329   0.000093038        2519698       8987
  18 17  0     -191.7980989905    -0.0000000285   0.000026186   0.000021830        2483015      10026
  19 18  0     -191.7980989923    -0.0000000019   0.000012307   0.000006212        2421894      11497
  20 19  0     -191.7980989925    -0.0000000002   0.000004337   0.000002880        2344953      13510

          -----------------
          DENSITY CONVERGED
          -----------------
     TIME TO FORM FOCK OPERATORS=       9.6 SECONDS (       0.5 SEC/ITER)
     FOCK TIME ON FIRST ITERATION=       0.1, LAST ITERATION=       1.2
     TIME TO SOLVE SCF EQUATIONS=       0.1 SECONDS (       0.0 SEC/ITER)

 FINAL R-B3LYP ENERGY IS     -191.7980989925 AFTER  20 ITERATIONS
 DFT EXCHANGE + CORRELATION ENERGY =       -21.1470784449
 TOTAL ELECTRON NUMBER             =        30.0000019418

          ------------
          EIGENVECTORS
          ------------

                      1          2          3          4          5
                  -19.1435   -10.2736   -10.2105   -10.2032    -1.0320
                     A          A          A          A          A   
    1  O  1  S    0.992758  -0.000118   0.000000   0.000049  -0.194691
    2  O  1  S    0.025655   0.000409   0.000001   0.000186   0.425921
    3  O  1  X   -0.000120  -0.000005  -0.000001   0.000007  -0.015829
    4  O  1  Y   -0.001118   0.000053   0.000014  -0.000038  -0.157928
    5  O  1  Z   -0.000153   0.000004   0.000001  -0.000011  -0.021526
    6  O  1  S    0.013867  -0.002945  -0.000141  -0.001578   0.399802
    7  O  1  X   -0.000060   0.000321  -0.000112  -0.000253  -0.002435
    8  O  1  Y   -0.001584   0.001893   0.000008   0.000444  -0.055200
    9  O  1  Z   -0.000217   0.000276  -0.000001   0.000063  -0.007507
   10  O  1 XX   -0.008108   0.000268   0.000002   0.000203  -0.010272
   11  O  1 YY   -0.007624  -0.000300   0.000012   0.000179   0.009936
   12  O  1 ZZ   -0.008123   0.000411  -0.000027   0.000063  -0.005657
   13  O  1 XY    0.000040  -0.000098   0.000010   0.000037   0.002158
   14  O  1 XZ    0.000006  -0.000024   0.000004   0.000017  -0.000082
   15  O  1 YZ    0.000080  -0.000116   0.000006   0.000018   0.002545
   16  C  2  S    0.000006   0.992829  -0.000138  -0.002178  -0.117441
   17  C  2  S    0.000526   0.048681  -0.000190  -0.000352   0.228333
   18  C  2  X    0.000041   0.000159  -0.000081  -0.000211   0.025356
   19  C  2  Y    0.000008   0.000745  -0.000017   0.000177   0.174077
   20  C  2  Z    0.000004   0.000106  -0.000006   0.000008   0.024025
   21  C  2  S   -0.002899  -0.009111   0.000577   0.005174   0.083224
   22  C  2  X   -0.000986   0.000071   0.000650   0.002404  -0.017290
   23  C  2  Y   -0.003230   0.003606  -0.000057  -0.000300  -0.032020
   24  C  2  Z   -0.000461   0.000447   0.000029   0.000074  -0.004972
   25  C  2 XX   -0.000076  -0.009398   0.000052  -0.000288  -0.016587
   26  C  2 YY   -0.000797  -0.008457  -0.000009  -0.000349   0.022108
   27  C  2 ZZ   -0.000044  -0.009665  -0.000073  -0.000138  -0.018538
   28  C  2 XY   -0.000116   0.000102  -0.000020   0.000224   0.006400
   29  C  2 XZ   -0.000017   0.000031   0.000000   0.000019   0.001010
   30  C  2 YZ   -0.000123   0.000192   0.000005  -0.000009   0.006564
   31  C  3  S   -0.000022   0.001931   0.055127   0.991228  -0.020739
   32  C  3  S   -0.000082   0.000017   0.002299   0.049631   0.036927
   33  C  3  X   -0.000081   0.000278  -0.000390   0.000064  -0.015519
   34  C  3  Y   -0.000026  -0.000176  -0.000142   0.000171   0.024475
   35  C  3  Z   -0.000007  -0.000008  -0.000017   0.000005   0.002030
   36  C  3  S    0.001176   0.002377   0.003240  -0.015969   0.025561
   37  C  3  X    0.001644  -0.003006   0.001926  -0.000834   0.017650
   38  C  3  Y    0.001111  -0.000201   0.000148  -0.002602   0.018527
   39  C  3  Z    0.000161  -0.000098   0.000035  -0.000219   0.002504
   40  C  3 XX    0.000084  -0.000484  -0.000849  -0.009103   0.002524
   41  C  3 YY   -0.000095  -0.000304  -0.000758  -0.009369   0.003904
   42  C  3 ZZ   -0.000048  -0.000128  -0.000652  -0.009604  -0.002564
   43  C  3 XY    0.000020   0.000170  -0.000009   0.000112  -0.004822
   44  C  3 XZ    0.000002   0.000007  -0.000003   0.000020  -0.000397
   45  C  3 YZ   -0.000005  -0.000018  -0.000010   0.000022   0.000605
   46  C  4  S    0.000005  -0.000034   0.991156  -0.055587  -0.007770
   47  C  4  S    0.000035  -0.000205   0.049175  -0.003285   0.014513
   48  C  4  X    0.000044  -0.000027  -0.000056   0.000334  -0.009350
   49  C  4  Y    0.000042  -0.000074  -0.000071   0.000116   0.001962
   50  C  4  Z    0.000009  -0.000004  -0.000013   0.000013   0.000104
   51  C  4  S   -0.001570   0.001883  -0.012643   0.006450  -0.011947
   52  C  4  X    0.000931  -0.001124   0.000813  -0.002416   0.005127
   53  C  4  Y    0.000253  -0.000132   0.000415  -0.000053   0.002649
   54  C  4  Z    0.000011  -0.000024   0.000049  -0.000036   0.000112
   55  C  4 XX   -0.000055   0.000124  -0.009236   0.000212   0.001043
   56  C  4 YY    0.000008   0.000018  -0.009443   0.000288   0.000006
   57  C  4 ZZ    0.000022  -0.000090  -0.009781   0.000438  -0.000952
   58  C  4 XY   -0.000060   0.000060   0.000078  -0.000087  -0.000657
   59  C  4 XZ   -0.000003   0.000007   0.000015  -0.000012  -0.000027
   60  C  4 YZ   -0.000001   0.000009   0.000031  -0.000015   0.000106
   61  H  5  S   -0.000061  -0.000238   0.000015  -0.000043   0.028427
   62  H  5  S   -0.000640   0.002542   0.000346   0.000346  -0.016722
   63  H  6  S    0.000136  -0.000225  -0.000101  -0.000417   0.006433
   64  H  6  S    0.000398  -0.000552  -0.000018   0.001485   0.006627
   65  H  7  S    0.000118  -0.000107  -0.000336  -0.000125   0.004860
   66  H  7  S   -0.000275   0.000064   0.002091  -0.000526   0.003190
   67  H  8  S    0.000014  -0.000023  -0.000343  -0.000027   0.001815
   68  H  8  S   -0.000124   0.000306   0.002207   0.000021   0.000864

                      6          7          8          9         10
                   -0.7891    -0.6576    -0.5448    -0.5060    -0.4424
                     A          A          A          A          A   
    1  O  1  S    0.044609  -0.057544  -0.055040   0.021776  -0.069413
    2  O  1  S   -0.100413   0.134033   0.124818  -0.048853   0.135557
    3  O  1  X    0.020616   0.010975   0.079438   0.160602   0.107628
    4  O  1  Y    0.003317   0.046868   0.104659  -0.071787   0.351575
    5  O  1  Z    0.001418   0.005958   0.019913  -0.003061   0.055361
    6  O  1  S   -0.112702   0.142485   0.175940  -0.082798   0.330485
    7  O  1  X    0.007216   0.006783   0.037298   0.087909   0.060678
    8  O  1  Y   -0.000985   0.034065   0.055666  -0.036963   0.168774
    9  O  1  Z    0.000213   0.004421   0.010388  -0.001374   0.027183
   10  O  1 XX    0.001399   0.000734  -0.001916  -0.001287  -0.005178
   11  O  1 YY    0.002247  -0.007591  -0.010023   0.007694  -0.026849
   12  O  1 ZZ    0.000041   0.001327   0.000766  -0.001099  -0.003314
   13  O  1 XY   -0.002074  -0.001592  -0.007932  -0.012912  -0.007412
   14  O  1 XZ   -0.000191  -0.000304  -0.001235  -0.001733  -0.001226
   15  O  1 YZ    0.000227  -0.001384  -0.002300   0.000833  -0.004355
   16  C  2  S   -0.047209   0.119469   0.091913  -0.012688   0.031736
   17  C  2  S    0.094455  -0.251733  -0.198893   0.032041  -0.079959
   18  C  2  X    0.065804   0.012029   0.183487   0.282862   0.058463
   19  C  2  Y   -0.117401   0.181131   0.043705  -0.005577  -0.259974
   20  C  2  Z   -0.011854   0.022741   0.019160   0.011684  -0.024823
   21  C  2  S    0.077243  -0.204710  -0.197501   0.020649  -0.078087
   22  C  2  X    0.019840   0.018180   0.062249   0.089692   0.011889
   23  C  2  Y   -0.013651   0.068639   0.042349   0.005499  -0.061412
   24  C  2  Z   -0.001089   0.009402   0.010029   0.003699  -0.004454
   25  C  2 XX    0.010448  -0.006757  -0.005300   0.001442   0.003833
   26  C  2 YY   -0.005923   0.009229   0.012215  -0.007269   0.001490
   27  C  2 ZZ   -0.004006   0.008954   0.006794  -0.000749   0.005563
   28  C  2 XY   -0.007896   0.002042  -0.009654  -0.002408  -0.001887
   29  C  2 XZ   -0.000166  -0.000994  -0.001962  -0.000520  -0.000090
   30  C  2 YZ   -0.000762   0.000239   0.000166  -0.001113  -0.000849
   31  C  3  S   -0.163796   0.053358  -0.096789   0.001359   0.004689
   32  C  3  S    0.320891  -0.107834   0.199273   0.001148  -0.012355
   33  C  3  X    0.060409   0.221054   0.043925  -0.038314  -0.272686
   34  C  3  Y    0.038936  -0.005033  -0.124912   0.302112  -0.070563
   35  C  3  Z    0.003204   0.004364  -0.006661   0.024710  -0.010291
   36  C  3  S    0.217927  -0.091447   0.189588  -0.005986   0.011454
   37  C  3  X   -0.006002   0.051467  -0.015252  -0.009131  -0.114367
   38  C  3  Y   -0.017477   0.000593  -0.055582   0.093847  -0.013268
   39  C  3  Z   -0.001986   0.001030  -0.003952   0.008086  -0.003143
   40  C  3 XX    0.004911   0.002369  -0.012589  -0.002775  -0.003736
   41  C  3 YY   -0.000465  -0.005424   0.007631  -0.003344   0.008449
   42  C  3 ZZ   -0.015759   0.004838  -0.007301   0.000696  -0.000173
   43  C  3 XY    0.003950   0.010039   0.005674  -0.003754   0.000219
   44  C  3 XZ    0.000710   0.000582   0.000134  -0.000475   0.000071
   45  C  3 YZ    0.001348  -0.000669   0.001681  -0.000468   0.000829
   46  C  4  S   -0.142501  -0.127079   0.066879   0.006440   0.005529
   47  C  4  S    0.276721   0.253992  -0.137791  -0.014734  -0.014914
   48  C  4  X   -0.094866   0.048133  -0.193627  -0.131182   0.223220
   49  C  4  Y   -0.030728  -0.003833  -0.113948   0.223681   0.192780
   50  C  4  Z   -0.004057   0.000648  -0.010711   0.015854   0.018047
   51  C  4  S    0.220304   0.224694  -0.141432  -0.015107   0.015387
   52  C  4  X   -0.009254   0.026097  -0.080858  -0.046817   0.059673
   53  C  4  Y   -0.000533   0.001318  -0.040621   0.091804   0.062914
   54  C  4  Z   -0.000318   0.000550  -0.003536   0.006500   0.006097
   55  C  4 XX    0.007744  -0.002481   0.005835   0.000065  -0.005091
   56  C  4 YY    0.000325   0.006828  -0.010280  -0.000990   0.013743
   57  C  4 ZZ   -0.014657  -0.011820   0.005509   0.000212  -0.000125
   58  C  4 XY    0.002837  -0.003156   0.009069   0.003129  -0.001370
   59  C  4 XZ    0.000662  -0.000120   0.000605   0.000182  -0.000239
   60  C  4 YZ    0.001355   0.001602  -0.001217  -0.000106   0.001232
   61  H  5  S    0.027353  -0.124663  -0.171923  -0.115334  -0.001706
   62  H  5  S    0.009169  -0.039196  -0.088610  -0.081931   0.010224
   63  H  6  S    0.085688  -0.060685   0.145154  -0.155030   0.077567
   64  H  6  S    0.006945  -0.023548   0.069531  -0.111430   0.068818
   65  H  7  S    0.071067   0.099923  -0.134834   0.091587   0.140897
   66  H  7  S    0.006129   0.034200  -0.059194   0.049801   0.128894
   67  H  8  S    0.072675   0.113452  -0.101360  -0.135961   0.023990
   68  H  8  S    0.011733   0.039153  -0.049221  -0.085291   0.025507

                     11         12         13         14         15
                   -0.4206    -0.3893    -0.3840    -0.2817    -0.2537
                     A          A          A          A          A   
    1  O  1  S    0.037039   0.001040   0.028899   0.000391   0.001194
    2  O  1  S   -0.081078  -0.001833  -0.056587  -0.001385  -0.008591
    3  O  1  X    0.138823  -0.044183  -0.117903   0.026559   0.577754
    4  O  1  Y   -0.281755  -0.057804  -0.220884   0.040766  -0.073053
    5  O  1  Z   -0.004012   0.430252  -0.069558  -0.280019   0.032838
    6  O  1  S   -0.128670  -0.006858  -0.134406  -0.001744   0.021401
    7  O  1  X    0.080026  -0.025976  -0.065745   0.019466   0.408518
    8  O  1  Y   -0.164245  -0.034262  -0.120170   0.028595  -0.056846
    9  O  1  Z   -0.002475   0.264081  -0.040883  -0.197510   0.022540
   10  O  1 XX   -0.005187   0.000820   0.002118  -0.000163  -0.003794
   11  O  1 YY    0.019409   0.006432   0.011444  -0.003249   0.002088
   12  O  1 ZZ   -0.002763  -0.006617   0.000629   0.003093  -0.002491
   13  O  1 XY   -0.010298   0.003227   0.007143  -0.001467  -0.018031
   14  O  1 XZ   -0.001597  -0.001921   0.001204   0.002704  -0.002625
   15  O  1 YZ    0.001009  -0.028146   0.004371   0.012805  -0.000723
   16  C  2  S   -0.027616   0.002172   0.016626  -0.000206  -0.000478
   17  C  2  S    0.072172  -0.004749  -0.029997   0.000238  -0.012693
   18  C  2  X    0.261355  -0.044284  -0.085853  -0.004236  -0.136591
   19  C  2  Y    0.119102  -0.035721   0.220987   0.003234   0.019733
   20  C  2  Z    0.055485   0.355888  -0.000972  -0.042378  -0.005491
   21  C  2  S    0.039515  -0.009072  -0.093822   0.002015   0.045532
   22  C  2  X    0.071227  -0.022156  -0.050708   0.001801   0.065061
   23  C  2  Y   -0.039777  -0.018996   0.053809   0.006333  -0.058170
   24  C  2  Z    0.013020   0.204993  -0.010244  -0.036027  -0.002655
   25  C  2 XX   -0.019324   0.000023  -0.012241   0.000674   0.013520
   26  C  2 YY    0.005562  -0.004215   0.011650   0.004070  -0.010628
   27  C  2 ZZ   -0.003102   0.004855  -0.002389  -0.004327  -0.001004
   28  C  2 XY   -0.000638  -0.002009  -0.001534   0.001416   0.046925
   29  C  2 XZ   -0.000248   0.006952  -0.001301   0.009304   0.006857
   30  C  2 YZ    0.001924   0.017927   0.000127  -0.022998   0.002114
   31  C  3  S    0.013580  -0.001210  -0.007908   0.000761   0.038346
   32  C  3  S   -0.032251   0.001808   0.008629  -0.000576  -0.074971
   33  C  3  X   -0.231438   0.013026  -0.018658  -0.001635   0.162786
   34  C  3  Y   -0.088100  -0.022552  -0.253519  -0.031688  -0.143951
   35  C  3  Z    0.004655   0.173554  -0.031317   0.367151  -0.017891
   36  C  3  S    0.002673   0.008422   0.066254  -0.010341  -0.326753
   37  C  3  X   -0.014258   0.001985   0.007654  -0.006650   0.107216
   38  C  3  Y   -0.000939  -0.008222  -0.066023  -0.025590  -0.115149
   39  C  3  Z    0.008870   0.093420  -0.010664   0.262644  -0.013971
   40  C  3 XX   -0.004031   0.000159  -0.013877  -0.000182   0.000178
   41  C  3 YY    0.011518  -0.001312   0.020302  -0.000324   0.003750
   42  C  3 ZZ   -0.000002   0.000855  -0.001614   0.000825   0.001841
   43  C  3 XY   -0.011950   0.002244   0.016952  -0.000980   0.005882
   44  C  3 XZ   -0.001552  -0.003460   0.001177   0.013898   0.000340
   45  C  3 YZ    0.001749   0.008160   0.001843   0.003828   0.000543
   46  C  4  S    0.017331  -0.002358   0.004404  -0.000044  -0.002361
   47  C  4  S   -0.038270   0.005539  -0.008345   0.000062  -0.000400
   48  C  4  X    0.310329  -0.025457  -0.014235  -0.007596  -0.054363
   49  C  4  Y   -0.107863   0.023990   0.318656  -0.029723  -0.023396
   50  C  4  Z    0.003689   0.097954   0.017194   0.370506  -0.010715
   51  C  4  S   -0.083755   0.006926  -0.022582   0.004042   0.017696
   52  C  4  X    0.127552  -0.005084   0.023867  -0.009844  -0.105342
   53  C  4  Y   -0.027049   0.006651   0.127141  -0.021384  -0.009476
   54  C  4  Z    0.003608   0.061751   0.004863   0.254398  -0.006113
   55  C  4 XX    0.002983  -0.001264  -0.014493   0.000420  -0.004165
   56  C  4 YY    0.005277   0.000952   0.016778   0.000863   0.003120
   57  C  4 ZZ    0.000509  -0.000330   0.000771  -0.001243  -0.001129
   58  C  4 XY   -0.015162   0.003109   0.019558   0.001214   0.004173
   59  C  4 XZ   -0.001720  -0.006757   0.001737  -0.013862   0.000483
   60  C  4 YZ    0.000166  -0.000825   0.001714  -0.005630   0.000795
   61  H  5  S   -0.145583   0.007695  -0.032484   0.008276   0.171948
   62  H  5  S   -0.148965   0.008153  -0.031568   0.011094   0.267872
   63  H  6  S    0.073443   0.005151   0.196222   0.000702   0.045819
   64  H  6  S    0.081555   0.005005   0.194748   0.000514   0.083263
   65  H  7  S   -0.036191   0.018638   0.206009  -0.000209   0.003919
   66  H  7  S   -0.028104   0.011772   0.164750   0.003422   0.074936
   67  H  8  S    0.180340  -0.024239  -0.160659  -0.000576  -0.029253
   68  H  8  S    0.161351  -0.025126  -0.155770   0.000582  -0.009186

                     16         17         18         19         20
                   -0.0664     0.0672     0.1066     0.1331     0.1656
                     A          A          A          A          A   
    1  O  1  S   -0.000628   0.002163   0.005354  -0.025428   0.000167
    2  O  1  S    0.000064  -0.003163  -0.018939   0.060046   0.040463
    3  O  1  X   -0.021635  -0.018552  -0.078393   0.031374  -0.051151
    4  O  1  Y   -0.045823  -0.025333   0.013813  -0.056429  -0.085587
    5  O  1  Z    0.330367   0.263401  -0.012145  -0.006591  -0.012815
    6  O  1  S    0.010689  -0.028310  -0.035138   0.254492  -0.223027
    7  O  1  X   -0.020910  -0.021155  -0.116376  -0.045870  -0.105657
    8  O  1  Y   -0.047179  -0.024608   0.015340  -0.150729  -0.002308
    9  O  1  Z    0.323975   0.307503  -0.018706  -0.019832  -0.003562
   10  O  1 XX   -0.000530   0.000754   0.003425  -0.008810   0.017843
   11  O  1 YY    0.000168  -0.000956  -0.002855   0.009113   0.002463
   12  O  1 ZZ   -0.001170   0.002533  -0.003939  -0.003541   0.008278
   13  O  1 XY    0.000135  -0.001008  -0.002645  -0.001999  -0.001652
   14  O  1 XZ    0.000337   0.003025  -0.000143   0.000252   0.000332
   15  O  1 YZ   -0.002234   0.005409  -0.000096   0.002189  -0.001332
   16  C  2  S    0.000360   0.000203   0.055542   0.054540   0.098024
   17  C  2  S   -0.000007  -0.002376  -0.097770  -0.071518  -0.151384
   18  C  2  X    0.021407   0.028883   0.146065   0.097122   0.188768
   19  C  2  Y    0.043934   0.057358   0.102515   0.050453   0.136836
   20  C  2  Z   -0.339952  -0.403949   0.038210   0.004230   0.030649
   21  C  2  S   -0.008169   0.011032  -0.792460  -1.029153  -1.399142
   22  C  2  X    0.018548   0.039203   0.294313   0.251919   0.565832
   23  C  2  Y    0.033453   0.093787   0.231015   0.045791   0.697773
   24  C  2  Z   -0.319573  -0.544846   0.079917   0.011135   0.114504
   25  C  2 XX   -0.000581   0.000133   0.018083  -0.002774   0.003302
   26  C  2 YY   -0.005759  -0.003583  -0.007235   0.007480   0.022652
   27  C  2 ZZ    0.006345   0.003562   0.000623  -0.000575  -0.001613
   28  C  2 XY   -0.001828  -0.002856  -0.000915   0.003789  -0.007135
   29  C  2 XZ   -0.001676   0.019773  -0.000624   0.001125   0.000170
   30  C  2 YZ    0.029729   0.003981  -0.001375   0.001033   0.003568
   31  C  3  S   -0.000416   0.000755   0.042932   0.005886  -0.093313
   32  C  3  S   -0.001202  -0.003258  -0.060305   0.001631   0.152388
   33  C  3  X    0.001190  -0.005723   0.010169  -0.079057  -0.076547
   34  C  3  Y    0.014690  -0.026221   0.275750   0.030198  -0.103802
   35  C  3  Z   -0.196819   0.415532   0.008301   0.007422  -0.007904
   36  C  3  S    0.015707   0.001261  -0.787778  -0.120196   1.414411
   37  C  3  X    0.016984   0.009166  -0.022189  -0.451247  -0.481087
   38  C  3  Y    0.027438  -0.033018   0.597101   0.070597  -0.521404
   39  C  3  Z   -0.262160   0.642216   0.016490   0.003513  -0.064279
   40  C  3 XX   -0.002162  -0.002644  -0.015144   0.002994  -0.011210
   41  C  3 YY    0.001289   0.004830   0.019185  -0.001685  -0.001598
   42  C  3 ZZ    0.000486  -0.002619   0.003141   0.003039  -0.001045
   43  C  3 XY   -0.002495  -0.000077   0.011947   0.012218  -0.002212
   44  C  3 XZ    0.030554   0.001454   0.000209   0.001217  -0.000266
   45  C  3 YZ   -0.002194  -0.019688   0.002805  -0.000113   0.000710
   46  C  4  S    0.001159   0.003749   0.035646  -0.120654   0.058261
   47  C  4  S   -0.001972  -0.007642  -0.060984   0.186014  -0.102682
   48  C  4  X   -0.001130   0.006199  -0.129414   0.182202   0.018586
   49  C  4  Y   -0.025038   0.025245   0.156794   0.077340  -0.099673
   50  C  4  Z    0.361002  -0.253590   0.017063   0.004656  -0.008564
   51  C  4  S   -0.019411  -0.049233  -0.477194   2.025464  -0.504711
   52  C  4  X    0.006054   0.010676  -0.376099   0.414287   0.033488
   53  C  4  Y   -0.028032   0.049060   0.272379   0.159759  -0.191288
   54  C  4  Z    0.444424  -0.453728   0.030629   0.014203  -0.009714
   55  C  4 XX   -0.000237   0.001096   0.011731   0.002540   0.009654
   56  C  4 YY   -0.000033   0.001534  -0.005426  -0.015634   0.001048
   57  C  4 ZZ    0.000509  -0.002044   0.000541  -0.005687   0.002478
   58  C  4 XY   -0.000960   0.001231  -0.020484  -0.002874   0.004872
   59  C  4 XZ    0.010289  -0.024302  -0.000646  -0.000605   0.000215
   60  C  4 YZ    0.001347  -0.011708  -0.000297  -0.001038   0.000118
   61  H  5  S   -0.002387   0.005534   0.047359   0.032352   0.059508
   62  H  5  S   -0.003028   0.026708   0.942108   0.778546   1.613461
   63  H  6  S    0.004569   0.007734   0.070639   0.017768  -0.067517
   64  H  6  S    0.009874   0.043736   1.264117   0.074746  -1.388445
   65  H  7  S    0.000519  -0.000888  -0.039110  -0.096700   0.033179
   66  H  7  S   -0.004748  -0.002961  -0.220688  -1.327733   0.638992
   67  H  8  S    0.001021   0.003576   0.079500  -0.037486   0.022509
   68  H  8  S    0.002427   0.035576   1.004036  -1.169649   0.104202

                     21         22         23         24         25
                    0.1916     0.2605     0.3223     0.3335     0.5157
                     A          A          A          A          A   
    1  O  1  S   -0.012495  -0.102489   0.051177   0.004865   0.005875
    2  O  1  S    0.042133   0.088372  -0.036387   0.012161  -0.027276
    3  O  1  X    0.111866  -0.088473  -0.044163  -0.130618   0.000744
    4  O  1  Y   -0.033471  -0.199938  -0.012585   0.081529   0.014575
    5  O  1  Z   -0.000148  -0.023350   0.004380  -0.000453  -0.065397
    6  O  1  S    0.079352   1.969158  -1.231294  -0.104398  -0.080493
    7  O  1  X    0.144987  -0.159104   0.003812  -0.378911   0.001360
    8  O  1  Y   -0.078163  -0.825087   0.454685   0.149606   0.057776
    9  O  1  Z   -0.000427  -0.109754   0.068799  -0.003991  -0.048313
   10  O  1 XX    0.002431  -0.060799   0.041212  -0.005806  -0.007255
   11  O  1 YY    0.005628  -0.011578  -0.020467   0.014459  -0.014376
   12  O  1 ZZ    0.002286  -0.064780   0.034223   0.015555   0.009076
   13  O  1 XY    0.003582   0.011618  -0.000288  -0.011257  -0.006953
   14  O  1 XZ    0.000942   0.001583  -0.000277  -0.002768   0.010562
   15  O  1 YZ    0.000828   0.009240  -0.008400  -0.001144   0.038323
   16  C  2  S    0.022279   0.041972  -0.005856  -0.083623  -0.012296
   17  C  2  S   -0.062375  -0.001762  -0.117759   0.103485   0.002183
   18  C  2  X   -0.251713  -0.049971  -0.035663   0.433093   0.087887
   19  C  2  Y    0.047215  -0.174640   0.039885  -0.170610   0.081793
   20  C  2  Z   -0.009349  -0.034865   0.003990   0.011137  -0.657386
   21  C  2  S    0.076927  -1.322746   0.684626   2.075822   0.019306
   22  C  2  X   -0.344561   0.003210   0.607907   1.788653  -0.039817
   23  C  2  Y   -0.025087  -1.879199   1.347544  -0.834954   0.036801
   24  C  2  Z   -0.030582  -0.261551   0.172200  -0.000865   0.707863
   25  C  2 XX    0.009720  -0.020512  -0.022078  -0.012233  -0.019747
   26  C  2 YY    0.004790   0.025625   0.032506  -0.008656  -0.002454
   27  C  2 ZZ   -0.007104  -0.016697  -0.001655   0.010866   0.008689
   28  C  2 XY   -0.001281   0.008265  -0.001040   0.016414   0.011782
   29  C  2 XZ    0.001201   0.001611  -0.002094   0.000508  -0.016924
   30  C  2 YZ    0.001516   0.006220   0.004354  -0.001916  -0.001198
   31  C  3  S   -0.068338   0.031686   0.079368   0.077837   0.013328
   32  C  3  S    0.112406   0.025287  -0.093908  -0.094690  -0.010350
   33  C  3  X   -0.080666  -0.032815  -0.254096   0.184532   0.129889
   34  C  3  Y   -0.099986   0.014087  -0.160814  -0.273756  -0.021717
   35  C  3  Z   -0.008816   0.018176  -0.017561  -0.015657  -0.489803
   36  C  3  S    1.102500  -1.461689  -2.961713  -1.562031  -0.023689
   37  C  3  X   -0.063077  -0.302939  -2.567127   1.594261  -0.318868
   38  C  3  Y   -0.708187  -0.041292  -1.467776  -1.913641  -0.045031
   39  C  3  Z   -0.049113   0.033897  -0.170639  -0.134399   0.255819
   40  C  3 XX   -0.013589   0.041267  -0.019360  -0.002355   0.014653
   41  C  3 YY    0.004639  -0.021975  -0.003029   0.020282   0.005250
   42  C  3 ZZ    0.000743  -0.000840   0.010675  -0.005534  -0.013185
   43  C  3 XY    0.031501   0.013915   0.007933  -0.038586   0.006406
   44  C  3 XZ    0.002291   0.003577  -0.000048  -0.003255  -0.019459
   45  C  3 YZ    0.000658  -0.002506  -0.001453   0.002214  -0.028442
   46  C  4  S    0.008527  -0.015571  -0.075163  -0.003197  -0.001160
   47  C  4  S   -0.005934   0.053162  -0.026378  -0.011434   0.053872
   48  C  4  X   -0.108330  -0.228128  -0.011926   0.035847  -0.096717
   49  C  4  Y    0.343913  -0.059392  -0.027890   0.205339  -0.005287
   50  C  4  Z    0.022922  -0.012944  -0.000051   0.019713  -0.577688
   51  C  4  S   -0.128613   0.256303   3.268165  -0.119902   0.153072
   52  C  4  X   -0.368871  -0.755899  -2.802957  -0.271441   0.051211
   53  C  4  Y    1.427196  -0.284580  -0.716283   0.997763   0.027894
   54  C  4  Z    0.101944  -0.050695  -0.092797   0.073760   0.544870
   55  C  4 XX    0.008407  -0.013606  -0.018302  -0.030047   0.007804
   56  C  4 YY   -0.010018   0.011831   0.024730   0.036775  -0.002025
   57  C  4 ZZ    0.002870  -0.000873  -0.011417  -0.004133   0.002748
   58  C  4 XY   -0.001824   0.006289  -0.034887   0.028130   0.004290
   59  C  4 XZ   -0.000063  -0.001079  -0.002535   0.001804   0.029984
   60  C  4 YZ   -0.001278   0.000217   0.002793   0.003887   0.018286
   61  H  5  S    0.028299   0.023026  -0.094206   0.009546  -0.057823
   62  H  5  S   -0.466549  -0.197082   0.384450   0.754756   0.043730
   63  H  6  S    0.019233  -0.106427   0.012669  -0.003678   0.020871
   64  H  6  S   -1.158294   0.131347  -0.945243  -0.887355  -0.063017
   65  H  7  S   -0.054071   0.067777   0.053618   0.132431  -0.014527
   66  H  7  S   -1.442973   0.476257   0.196652  -0.964014  -0.044304
   67  H  8  S    0.047816  -0.005536   0.122536  -0.118783   0.002382
   68  H  8  S    1.529039   0.403768   0.425855   0.676481   0.031250

                     26         27         28         29         30
                    0.5175     0.5811     0.5829     0.5986     0.6465
                     A          A          A          A          A   
    1  O  1  S   -0.026997  -0.002203   0.000712   0.015967  -0.004929
    2  O  1  S    0.115543  -0.084949  -0.049805  -0.034105   0.014147
    3  O  1  X   -0.003858  -0.250580  -0.127354   0.138308  -0.022489
    4  O  1  Y   -0.042897   0.098527   0.066707  -0.030329  -0.045130
    5  O  1  Z   -0.024144   0.016406  -0.037964   0.005459   0.077941
    6  O  1  S    0.364809   0.439495   0.229860  -0.266282   0.010335
    7  O  1  X    0.024989  -0.148799  -0.082050   0.010022  -0.002978
    8  O  1  Y   -0.226431  -0.079875  -0.004979   0.204413  -0.043281
    9  O  1  Z   -0.040259   0.042872  -0.112377   0.046072   0.050027
   10  O  1 XX    0.029059  -0.023554  -0.013231  -0.005426   0.005100
   11  O  1 YY    0.010732   0.012331  -0.001747  -0.001446  -0.010762
   12  O  1 ZZ    0.002322  -0.038272  -0.006474   0.020546   0.000663
   13  O  1 XY    0.007776   0.013520   0.008821   0.015953  -0.007198
   14  O  1 XZ    0.005156   0.005930  -0.006090   0.002471   0.008622
   15  O  1 YZ    0.009400  -0.018006   0.046071  -0.007868  -0.024668
   16  C  2  S    0.059381  -0.018112  -0.011773  -0.014199   0.006892
   17  C  2  S    0.015805  -0.211574  -0.188070  -0.452908  -0.048935
   18  C  2  X   -0.174511  -0.405187  -0.211243  -0.083225  -0.007284
   19  C  2  Y   -0.015495   0.211953   0.280078   0.248789  -0.128290
   20  C  2  Z   -0.137543   0.366562  -0.590394   0.100601   0.254813
   21  C  2  S   -0.170927   0.566189   0.462518   0.839301  -0.001233
   22  C  2  X   -0.074603   1.237205   0.666802  -0.155686   0.021670
   23  C  2  Y   -0.521889  -0.868681  -0.698254  -0.010492   0.129051
   24  C  2  Z    0.079446  -0.532744   0.811221  -0.128119  -0.704518
   25  C  2 XX    0.096021   0.008292  -0.003106  -0.119104  -0.005955
   26  C  2 YY    0.027856  -0.073417  -0.046589  -0.016686   0.010936
   27  C  2 ZZ   -0.050750   0.006504   0.000782   0.031015  -0.004667
   28  C  2 XY   -0.046349   0.027265   0.018572  -0.018286   0.005164
   29  C  2 XZ    0.000471   0.017861  -0.027501  -0.005918  -0.011176
   30  C  2 YZ    0.010820  -0.003638  -0.014573  -0.007531   0.020639
   31  C  3  S   -0.058201  -0.022068  -0.021281  -0.038705   0.006674
   32  C  3  S    0.060899  -0.195341  -0.172076  -0.530018  -0.060874
   33  C  3  X   -0.566368   0.225732   0.128948   0.021528  -0.031698
   34  C  3  Y    0.275990  -0.122277  -0.069177   0.082161   0.045018
   35  C  3  Z   -0.098342  -0.065454   0.078059   0.003457  -0.927419
   36  C  3  S    0.071059  -0.421555  -0.155378   1.011960   0.099870
   37  C  3  X    1.389418   0.476225   0.318756  -0.135206   0.041307
   38  C  3  Y    0.120379  -0.351724  -0.202548  -0.203329  -0.108346
   39  C  3  Z    0.097585   0.082802  -0.182058   0.000669   1.529593
   40  C  3 XX   -0.059011  -0.115058  -0.081529  -0.045082   0.008616
   41  C  3 YY   -0.001906  -0.002893  -0.021020  -0.161265  -0.000572
   42  C  3 ZZ    0.036169   0.031645   0.030801   0.054643  -0.009056
   43  C  3 XY   -0.026601   0.036530   0.016373  -0.002119   0.002737
   44  C  3 XZ   -0.008867  -0.025648   0.039437  -0.006853   0.014097
   45  C  3 YZ   -0.009976  -0.005944   0.002293  -0.022218  -0.027293
   46  C  4  S    0.003236   0.020226   0.012028  -0.013668  -0.010456
   47  C  4  S   -0.219326  -0.286537  -0.219605  -0.372140  -0.060977
   48  C  4  X    0.460830   0.290390   0.179466  -0.032441  -0.047358
   49  C  4  Y    0.258210  -0.127508  -0.108389   0.222014  -0.069213
   50  C  4  Z   -0.114655  -0.406849   0.634440  -0.066565   0.453956
   51  C  4  S   -0.710988   0.146232   0.113059   0.595360   0.136101
   52  C  4  X   -0.347788  -0.123256  -0.042302   0.447674   0.107626
   53  C  4  Y   -0.411558   0.616524   0.373140  -0.409581   0.172387
   54  C  4  Z    0.095938   0.472180  -0.650555   0.065743  -0.885651
   55  C  4 XX   -0.046570   0.042954   0.019695  -0.061008  -0.018172
   56  C  4 YY    0.008995  -0.052565  -0.035526  -0.050552  -0.018185
   57  C  4 ZZ    0.002067  -0.011446  -0.004534   0.034047   0.011230
   58  C  4 XY   -0.021397  -0.036487  -0.010953   0.061308  -0.006444
   59  C  4 XZ    0.004384   0.013636  -0.024666   0.006194   0.026189
   60  C  4 YZ    0.004391  -0.006532   0.002211  -0.007966  -0.010534
   61  H  5  S    0.271667   0.165618   0.060014  -0.395177   0.025297
   62  H  5  S   -0.172517   0.183377   0.098852  -0.050252  -0.004658
   63  H  6  S   -0.127377   0.063698  -0.040190  -0.564566   0.016620
   64  H  6  S    0.283507  -0.242195  -0.139011  -0.013906   0.001233
   65  H  7  S    0.125042  -0.238233  -0.130795  -0.047690  -0.085299
   66  H  7  S    0.241732  -0.243559  -0.131463  -0.016877  -0.059331
   67  H  8  S   -0.035335   0.163562   0.055632  -0.407580  -0.056590
   68  H  8  S   -0.090180   0.013067  -0.005940  -0.205495  -0.007104

                     31         32         33         34         35
                    0.6517     0.6927     0.8061     0.8419     0.8506
                     A          A          A          A          A   
    1  O  1  S   -0.024665   0.033018   0.018903   0.000847   0.006712
    2  O  1  S    0.044697  -0.125959  -0.115924   0.148431  -0.397339
    3  O  1  X   -0.107888   0.010865  -0.017651   0.067000  -0.127135
    4  O  1  Y   -0.192072   0.336953  -0.272714   0.257137  -0.472400
    5  O  1  Z   -0.048134   0.046946  -0.035468   0.035249  -0.057280
    6  O  1  S   -0.002190   0.304897  -0.710955  -0.252695   0.335881
    7  O  1  X    0.018776   0.042786  -0.289036  -0.076695   0.188878
    8  O  1  Y   -0.166105   0.150994   0.739653  -0.376676   0.892944
    9  O  1  Z   -0.031745   0.020984   0.082690  -0.049359   0.116717
   10  O  1 XX    0.029710  -0.047917  -0.050679   0.066255  -0.137244
   11  O  1 YY   -0.101811   0.141227  -0.120901   0.080158  -0.185234
   12  O  1 ZZ    0.011325  -0.061263   0.006230   0.056743  -0.140588
   13  O  1 XY   -0.034700   0.025474   0.077405   0.021882  -0.043351
   14  O  1 XZ   -0.005958   0.004562   0.007959   0.003477  -0.006285
   15  O  1 YZ   -0.014189   0.032749  -0.014380   0.006381  -0.008802
   16  C  2  S    0.035354  -0.037801  -0.005244  -0.012914   0.050994
   17  C  2  S   -0.162987   0.614723   0.246116  -0.105931  -0.141374
   18  C  2  X    0.005883   0.090851  -0.702223  -0.148777   0.326223
   19  C  2  Y   -0.544561   0.738286  -0.054157  -0.032713   0.316588
   20  C  2  Z   -0.129770   0.098255  -0.051240  -0.012123   0.060671
   21  C  2  S   -0.148397  -0.436932   1.362909   0.690270   1.225235
   22  C  2  X    0.004540  -0.063297   3.154015   0.524013  -0.368370
   23  C  2  Y    0.428291  -0.738210   0.536035  -0.141358  -0.103689
   24  C  2  Z    0.205319  -0.099577   0.236771   0.008406  -0.039158
   25  C  2 XX   -0.018227   0.095205  -0.042605   0.031981   0.045036
   26  C  2 YY    0.089841  -0.083127   0.162217  -0.081145   0.145986
   27  C  2 ZZ   -0.042918   0.036694   0.008330   0.012282  -0.099900
   28  C  2 XY    0.026776  -0.046542  -0.067378  -0.069001   0.068317
   29  C  2 XZ    0.005519  -0.001360  -0.009300  -0.009527   0.018759
   30  C  2 YZ    0.017487  -0.022734   0.018176  -0.020022   0.040858
   31  C  3  S    0.043571   0.035680   0.038566   0.009127  -0.001668
   32  C  3  S   -0.351871  -0.034112   0.309423   0.034760   0.180388
   33  C  3  X   -0.342437  -0.503479  -0.092451  -0.159088   0.076711
   34  C  3  Y   -0.199672  -0.063569   0.617257   0.288368   0.188348
   35  C  3  Z    0.133038  -0.029304   0.041018   0.019344   0.021586
   36  C  3  S    0.609894  -0.333716  -1.611113  -0.196596  -0.545431
   37  C  3  X    0.456438   0.373617   0.444742   0.601578  -0.258996
   38  C  3  Y    0.177878   0.246927  -2.834496  -1.544521  -0.854724
   39  C  3  Z   -0.241625   0.053558  -0.230766  -0.113262  -0.075939
   40  C  3 XX    0.060920   0.039324   0.034419   0.052773   0.006136
   41  C  3 YY   -0.014286   0.043060   0.015505  -0.043347  -0.025452
   42  C  3 ZZ   -0.040194  -0.031579  -0.022648  -0.002548   0.011090
   43  C  3 XY    0.022434   0.055220   0.060355  -0.046000  -0.019133
   44  C  3 XZ    0.003686   0.002868   0.006885  -0.003405  -0.002631
   45  C  3 YZ    0.007770   0.009152   0.005006  -0.004223  -0.003207
   46  C  4  S   -0.068612  -0.058790   0.008922   0.003138  -0.013829
   47  C  4  S   -0.359285  -0.037313   0.178614  -0.020883   0.287057
   48  C  4  X   -0.268358  -0.399976  -0.212495   0.180684   0.289502
   49  C  4  Y   -0.207047  -0.070028   0.057320  -0.978668  -0.311089
   50  C  4  Z   -0.079172  -0.007167   0.009017  -0.073627  -0.018686
   51  C  4  S    0.783292   0.382738   0.565357   0.125843  -0.053048
   52  C  4  X    0.577269   0.354290   0.202313  -0.612825  -0.810511
   53  C  4  Y    0.588111  -0.196046   0.408165   2.493348   0.948555
   54  C  4  Z    0.183654  -0.019462   0.027326   0.184741   0.062687
   55  C  4 XX   -0.117226  -0.105999   0.069337  -0.064535   0.023853
   56  C  4 YY   -0.116969  -0.040282  -0.001875   0.074728  -0.007537
   57  C  4 ZZ    0.076259   0.063582  -0.023729  -0.014152   0.030306
   58  C  4 XY   -0.030970  -0.023352  -0.033263   0.069045   0.088319
   59  C  4 XZ   -0.011445  -0.003450  -0.001729   0.004726   0.007369
   60  C  4 YZ   -0.015587  -0.009635   0.002982   0.009245  -0.002243
   61  H  5  S    0.118389   0.101491  -0.356373  -0.187279   0.518088
   62  H  5  S    0.079881  -0.038703   2.084025   0.326687  -1.001255
   63  H  6  S    0.138581   0.169645   0.190709  -0.036687  -0.103477
   64  H  6  S    0.017855   0.013832  -1.459666  -0.592044  -0.278063
   65  H  7  S   -0.528293  -0.188674  -0.044426   0.479085  -0.014680
   66  H  7  S   -0.324788   0.172922  -0.318536  -1.858156  -0.449283
   67  H  8  S   -0.352623  -0.240815  -0.009678  -0.349460  -0.389161
   68  H  8  S   -0.042967  -0.177179  -0.190098   1.553048   1.165497

                     36         37         38         39         40
                    0.8708     0.9110     0.9564     0.9935     1.0891
                     A          A          A          A          A   
    1  O  1  S   -0.000412   0.007777   0.001400  -0.001026   0.007866
    2  O  1  S   -0.227241  -0.035350   0.163378  -0.007391  -0.090941
    3  O  1  X   -0.088993   0.060813  -0.204833   0.042454  -0.285068
    4  O  1  Y   -0.037492  -0.201619   0.114811   0.118508   0.245414
    5  O  1  Z   -0.002047  -0.070968   0.010171  -0.932098  -0.003047
    6  O  1  S    0.628364  -0.314463  -0.322650   0.064222  -0.535106
    7  O  1  X    0.068090  -0.235918   0.179741  -0.039934   0.219028
    8  O  1  Y    0.034291   0.514077  -0.127610  -0.180330  -0.305387
    9  O  1  Z   -0.001690   0.110314  -0.020367   1.262852   0.014616
   10  O  1 XX   -0.047039  -0.045609   0.042596  -0.001340  -0.027473
   11  O  1 YY   -0.074523  -0.057627   0.017631  -0.007672  -0.061054
   12  O  1 ZZ   -0.092860   0.036770   0.123459   0.000259   0.078193
   13  O  1 XY    0.024633  -0.030564   0.027394  -0.001461   0.010427
   14  O  1 XZ    0.005527  -0.006094  -0.004272   0.014242   0.003540
   15  O  1 YZ    0.004464  -0.015582  -0.015415   0.032240  -0.016032
   16  C  2  S    0.003066   0.005905  -0.035285   0.000942  -0.000241
   17  C  2  S    0.680124  -0.611880  -1.204976   0.045024  -0.355244
   18  C  2  X   -0.292063  -0.079047   0.015523  -0.000236  -0.177409
   19  C  2  Y   -0.096479   0.168749   0.183896  -0.019221  -0.046010
   20  C  2  Z   -0.025018   0.025503   0.021962   0.116069  -0.008574
   21  C  2  S   -1.931424   2.261319   3.658135  -0.204449  -0.144868
   22  C  2  X    0.064094   0.867669   0.366804  -0.094377   0.972573
   23  C  2  Y    0.091593  -0.499325  -1.365346   0.085638   1.239495
   24  C  2  Z    0.026676  -0.031651  -0.127246  -0.641169   0.154575
   25  C  2 XX   -0.023596  -0.069751  -0.132346  -0.004112   0.096507
   26  C  2 YY    0.091398   0.063913  -0.064581   0.007110  -0.088453
   27  C  2 ZZ    0.035390  -0.030997   0.019386  -0.000594  -0.024818
   28  C  2 XY   -0.051651   0.035967  -0.069089  -0.003803   0.000424
   29  C  2 XZ   -0.009955   0.008024  -0.020664   0.024663   0.030904
   30  C  2 YZ    0.004059   0.013938  -0.016161  -0.022991  -0.021957
   31  C  3  S   -0.023250   0.000330   0.022196  -0.001046   0.029224
   32  C  3  S    0.687414   0.087990   0.433152  -0.045168   0.920459
   33  C  3  X   -0.090411  -0.421420  -0.376454   0.016663   0.236952
   34  C  3  Y   -0.752089  -0.299080  -0.072891   0.005893   0.070195
   35  C  3  Z   -0.066390  -0.030587  -0.008601  -0.052913   0.010169
   36  C  3  S   -0.961357  -0.243852  -0.988010   0.181982  -3.538589
   37  C  3  X    0.200395   1.896823   2.522610  -0.071858  -2.879594
   38  C  3  Y    1.997921   0.302680  -0.107442   0.085667  -0.359225
   39  C  3  Z    0.170524   0.057023   0.033697   0.289583  -0.099942
   40  C  3 XX    0.123535   0.069206   0.060549  -0.004382   0.017687
   41  C  3 YY   -0.068124  -0.076173   0.015190  -0.000069   0.075589
   42  C  3 ZZ    0.061342   0.027172  -0.016441  -0.001725  -0.008103
   43  C  3 XY   -0.067333   0.059610   0.087752  -0.004969  -0.000684
   44  C  3 XZ   -0.001858   0.004740   0.007630   0.037901  -0.015230
   45  C  3 YZ   -0.012620  -0.008644   0.000379  -0.003096   0.028998
   46  C  4  S   -0.000765   0.030752   0.001235  -0.000558  -0.022937
   47  C  4  S    0.233262  -0.296531   1.222438   0.065088  -0.667381
   48  C  4  X    0.182045  -0.634380   0.022968   0.036931  -0.216040
   49  C  4  Y   -0.017597  -0.207995   0.078962   0.001061   0.277846
   50  C  4  Z    0.006311  -0.025115   0.001629   0.043414   0.025624
   51  C  4  S   -0.836727  -0.258079  -3.638497  -0.189907   4.411852
   52  C  4  X    0.077642   1.631983   0.626780  -0.049623  -0.530477
   53  C  4  Y   -0.203341   0.588416   0.307189  -0.044959  -2.106173
   54  C  4  Z   -0.026579   0.069195   0.039521  -0.154456  -0.167351
   55  C  4 XX   -0.023492  -0.082701   0.077871   0.002292  -0.011194
   56  C  4 YY    0.023641   0.123894   0.045422   0.000365  -0.006190
   57  C  4 ZZ    0.023817  -0.092920   0.040815   0.005770  -0.059423
   58  C  4 XY    0.065350  -0.084382  -0.033601   0.005969   0.155494
   59  C  4 XZ    0.002513  -0.005447  -0.001044  -0.024040   0.015984
   60  C  4 YZ    0.001505   0.017380  -0.001236  -0.018644   0.017043
   61  H  5  S   -0.305179   0.235469  -0.109377  -0.022833   0.487264
   62  H  5  S    0.829409  -0.192940  -0.627333  -0.013070   0.241350
   63  H  6  S   -0.577452  -0.261933   0.031512   0.028617  -0.014834
   64  H  6  S    2.036513   0.844116   0.439967  -0.005509   0.059410
   65  H  7  S   -0.055373   0.528909  -0.274413  -0.016116   0.287038
   66  H  7  S    0.104557  -1.130900   0.700837   0.109203   0.162226
   67  H  8  S   -0.172581   0.526541  -0.140775  -0.031527  -0.446139
   68  H  8  S    0.313614  -1.077423   0.543690   0.081863  -0.968326

                     41         42         43         44         45
                    1.1076     1.1312     1.2751     1.3398     1.4348
                     A          A          A          A          A   
    1  O  1  S   -0.000216   0.014554   0.011772  -0.005868  -0.004423
    2  O  1  S   -0.069651   0.029492   0.405870  -0.155879  -0.050818
    3  O  1  X    0.639813  -0.377074  -0.233615   0.007003   0.013025
    4  O  1  Y    0.040381   0.165350  -0.273742   0.065441   0.002275
    5  O  1  Z    0.041013   0.012136  -0.027677  -0.019604   0.007862
    6  O  1  S    0.019663  -0.569368  -0.634118   0.343499   0.206282
    7  O  1  X   -1.335735   0.543257   0.514567  -0.031877  -0.010013
    8  O  1  Y   -0.098037  -0.169715   0.452442  -0.148065  -0.033803
    9  O  1  Z   -0.087768  -0.000683   0.020309  -0.149034  -0.108037
   10  O  1 XX   -0.029140   0.031867   0.109590  -0.020169  -0.023081
   11  O  1 YY   -0.010115   0.022936   0.143095  -0.019000   0.013874
   12  O  1 ZZ    0.013737   0.025300   0.039529  -0.073906  -0.038166
   13  O  1 XY   -0.119094   0.004987   0.035249   0.023157  -0.013657
   14  O  1 XZ   -0.015330   0.013545   0.002200  -0.160181   0.148609
   15  O  1 YZ   -0.011723   0.000204  -0.013674  -0.153105  -0.131873
   16  C  2  S    0.000775   0.027569   0.030354  -0.002985  -0.003253
   17  C  2  S   -0.039806   0.611169   0.099436   0.006731  -0.036593
   18  C  2  X   -0.400246  -0.073660  -0.194262  -0.000404   0.018378
   19  C  2  Y   -0.033809  -0.166934  -0.005832  -0.009203   0.015747
   20  C  2  Z   -0.027961  -0.027679  -0.012581   0.001928  -0.062624
   21  C  2  S   -0.908907  -2.539697  -1.915341  -0.150063   0.100092
   22  C  2  X    1.823814  -0.182485  -1.528942   0.155976  -0.067152
   23  C  2  Y    0.315499   1.839043   0.415970  -0.024548  -0.209078
   24  C  2  Z    0.145055   0.210910   0.024324   0.119642   0.038937
   25  C  2 XX    0.057620   0.055288  -0.099175   0.063257  -0.034218
   26  C  2 YY   -0.075607   0.001889   0.030203  -0.085977  -0.033420
   27  C  2 ZZ    0.016645  -0.000038   0.067438   0.023460   0.064108
   28  C  2 XY    0.156666   0.015907   0.041555   0.030004  -0.058384
   29  C  2 XZ    0.035877   0.042280  -0.036027  -0.405458   0.382635
   30  C  2 YZ   -0.005435  -0.005771   0.049062   0.326875   0.146837
   31  C  3  S   -0.006083  -0.044158  -0.027799   0.000373   0.001063
   32  C  3  S   -0.180331  -1.233450  -0.750335   0.013960   0.025853
   33  C  3  X   -0.006395  -0.031275   0.053621  -0.010441  -0.006315
   34  C  3  Y   -0.160211   0.066601  -0.334155   0.034990   0.010385
   35  C  3  Z   -0.015323   0.006282  -0.023040   0.005649  -0.129594
   36  C  3  S   -0.012412   5.113793   3.047535  -0.053316  -0.099093
   37  C  3  X   -0.351439  -0.660558  -0.062875  -0.102224   0.161222
   38  C  3  Y    0.479562  -0.081889   4.089787  -0.346293   0.008045
   39  C  3  Z    0.008520  -0.054317   0.319496  -0.033014   0.000596
   40  C  3 XX   -0.019450   0.020965  -0.080035  -0.010259  -0.007484
   41  C  3 YY   -0.022071  -0.180309   0.009468   0.039616  -0.070936
   42  C  3 ZZ    0.016995   0.014193   0.032543  -0.030055   0.080476
   43  C  3 XY    0.068305   0.002699   0.049078  -0.036029  -0.032668
   44  C  3 XZ   -0.005014  -0.017235   0.045976   0.472369   0.258212
   45  C  3 YZ    0.006131   0.009908  -0.024750  -0.248279   0.544705
   46  C  4  S    0.007511   0.021411   0.015570  -0.001648  -0.000139
   47  C  4  S    0.709990   0.949748   0.213545   0.018262  -0.018152
   48  C  4  X    0.029175  -0.278336   0.049247  -0.037920   0.015592
   49  C  4  Y    0.057241   0.043220   0.061163   0.017706  -0.002163
   50  C  4  Z    0.003663   0.009986  -0.004981  -0.119486  -0.092654
   51  C  4  S   -1.465990  -2.452512  -2.193562   0.180397  -0.060081
   52  C  4  X    0.235051   1.077072   1.489964  -0.045169  -0.019736
   53  C  4  Y   -1.045212   0.141415  -2.163010   0.101700   0.085319
   54  C  4  Z   -0.064479   0.026509  -0.145597   0.033529   0.011095
   55  C  4 XX    0.011004   0.006793  -0.120741   0.014217   0.012357
   56  C  4 YY    0.034885   0.106686   0.106249   0.034960  -0.020774
   57  C  4 ZZ    0.044167  -0.002227   0.044584  -0.049967   0.008359
   58  C  4 XY    0.027634  -0.005811   0.079879   0.024756   0.027732
   59  C  4 XZ    0.007377   0.002603  -0.019366  -0.246037  -0.464803
   60  C  4 YZ    0.003189   0.023595  -0.011504  -0.232273   0.125555
   61  H  5  S    0.360264   0.410864  -0.241900   0.065537  -0.035227
   62  H  5  S    0.925461   0.529343  -0.144908   0.060930  -0.075526
   63  H  6  S    0.033670  -0.454145   0.727807  -0.087992   0.016807
   64  H  6  S    0.140600  -0.697001   1.241767  -0.155212   0.028004
   65  H  7  S    0.033169   0.099770   0.658743  -0.032542  -0.012093
   66  H  7  S    0.995270   0.130806   0.778511  -0.057947  -0.025304
   67  H  8  S   -0.361846   0.111891  -0.471366   0.028433   0.014349
   68  H  8  S    0.144318   0.045227  -0.591460  -0.003147   0.033958

                     46         47         48         49         50
                    1.5422     1.5629     1.6569     1.7273     1.7996
                     A          A          A          A          A   
    1  O  1  S   -0.001772  -0.103020  -0.000291  -0.042595   0.003961
    2  O  1  S   -0.032692  -1.607639   0.001054  -0.806473   0.128769
    3  O  1  X    0.013655   0.016911   0.005021  -0.055164   0.244956
    4  O  1  Y    0.019191   0.101544   0.005364   0.067506  -0.082352
    5  O  1  Z   -0.109548   0.026623  -0.054908   0.011380   0.006450
    6  O  1  S    0.099743   5.691922  -0.000343   2.832124  -0.315627
    7  O  1  X   -0.008750   0.002363  -0.006095   0.123523  -0.421931
    8  O  1  Y   -0.023421  -1.656389  -0.009615  -0.895740   0.144328
    9  O  1  Z   -0.082981  -0.227068   0.074198  -0.117377  -0.009599
   10  O  1 XX   -0.017118  -0.058448   0.025706  -0.546349  -0.152625
   11  O  1 YY    0.092517  -0.568820   0.016900  -0.270522  -0.074175
   12  O  1 ZZ   -0.097427  -0.537843  -0.043856   0.336514   0.310218
   13  O  1 XY    0.019577   0.051090   0.045712   0.032888   0.530094
   14  O  1 XZ    0.118942   0.052279  -0.294060  -0.040813   0.038618
   15  O  1 YZ   -0.465664   0.017627  -0.072924  -0.078618  -0.016683
   16  C  2  S   -0.000860  -0.022531   0.000327   0.010832   0.021140
   17  C  2  S   -0.003465  -0.259930   0.000774   0.377751  -0.111118
   18  C  2  X    0.021783   0.026577   0.000925   0.208660   0.031709
   19  C  2  Y    0.022398  -0.039057  -0.001678  -0.156772   0.092456
   20  C  2  Z   -0.180512   0.002001   0.007401  -0.004378   0.016484
   21  C  2  S    0.038484  -2.401569  -0.005803  -2.187231  -0.295047
   22  C  2  X    0.022829  -1.499722   0.014091  -1.105724   0.778820
   23  C  2  Y   -0.081416  -3.108981   0.030020  -1.181863   0.161926
   24  C  2  Z    0.100350  -0.469286  -0.174902  -0.200450   0.072935
   25  C  2 XX   -0.033473   0.248558   0.026425  -0.271140  -0.140502
   26  C  2 YY   -0.115109  -0.168575  -0.037496  -0.102541   0.028426
   27  C  2 ZZ    0.147690  -0.112247   0.011340   0.441115   0.082135
   28  C  2 XY   -0.085061  -0.121730   0.022858   0.078349  -0.453837
   29  C  2 XZ    0.337696   0.015349  -0.259212  -0.029978  -0.073351
   30  C  2 YZ    0.477066  -0.046899   0.157230  -0.091833  -0.041598
   31  C  3  S    0.002391  -0.021003   0.000172  -0.007529   0.017323
   32  C  3  S    0.041577  -0.573369   0.000847   0.041968  -0.287264
   33  C  3  X   -0.000457  -0.116476  -0.000850  -0.137636   0.252328
   34  C  3  Y    0.001247  -0.145440  -0.001240   0.071611  -0.151655
   35  C  3  Z    0.092052  -0.014788   0.027749   0.001788  -0.010440
   36  C  3  S   -0.176269   2.259929  -0.009898   0.821040  -0.117209
   37  C  3  X   -0.000906   1.999784  -0.039468   0.754073  -0.468794
   38  C  3  Y   -0.118904   2.031906  -0.047418   1.047284   0.267099
   39  C  3  Z   -0.014875   0.250788   0.176578   0.116831  -0.002804
   40  C  3 XX   -0.000426  -0.054822  -0.001101  -0.144451   0.074193
   41  C  3 YY    0.025834   0.176173   0.008116  -0.145980  -0.048587
   42  C  3 ZZ   -0.024822  -0.115549  -0.006628   0.392458   0.000898
   43  C  3 XY    0.002811  -0.053725   0.008477   0.176980  -0.349633
   44  C  3 XZ   -0.157494  -0.037633  -0.121030  -0.001734  -0.021958
   45  C  3 YZ   -0.189499   0.029692  -0.012758  -0.050797  -0.008876
   46  C  4  S   -0.000941   0.004501  -0.000438   0.015154   0.005995
   47  C  4  S   -0.020111   0.177188   0.002445   0.015788   0.082880
   48  C  4  X   -0.002464  -0.018977  -0.008217   0.081375  -0.053639
   49  C  4  Y   -0.015151   0.039976  -0.002091  -0.096183   0.064995
   50  C  4  Z    0.082045   0.016626   0.024743  -0.003652  -0.000612
   51  C  4  S    0.111951  -2.566656   0.040952  -1.170721   0.006066
   52  C  4  X   -0.081664   1.271262  -0.006799   0.153501  -0.017807
   53  C  4  Y    0.089157  -0.042712   0.005625   0.023081  -0.126092
   54  C  4  Z   -0.062798  -0.011688  -0.066980  -0.003978   0.001783
   55  C  4 XX   -0.008682  -0.065854   0.002228  -0.027186  -0.145358
   56  C  4 YY   -0.002997   0.116456  -0.112384  -0.233738   0.174245
   57  C  4 ZZ    0.015236  -0.055607   0.110602   0.298296   0.034854
   58  C  4 XY   -0.027665   0.005256  -0.002747  -0.059272   0.061903
   59  C  4 XZ    0.328823   0.025338  -0.118039  -0.012533  -0.013109
   60  C  4 YZ   -0.009005   0.030902   0.862830  -0.037074   0.009618
   61  H  5  S    0.004669  -0.316423   0.003961   0.049772   0.578618
   62  H  5  S   -0.008234  -0.748969  -0.000277  -0.281330   0.204812
   63  H  6  S   -0.008146   0.250023  -0.012845   0.217459   0.181979
   64  H  6  S   -0.028354   0.602513  -0.015499   0.427646   0.050762
   65  H  7  S   -0.021405   0.142902  -0.001997   0.281763  -0.202598
   66  H  7  S   -0.036544   0.075775  -0.005247   0.070829   0.187447
   67  H  8  S    0.015018   0.038127   0.000208   0.061111   0.063827
   68  H  8  S    0.037777  -0.222357  -0.003237   0.156530   0.013941

                     51         52         53         54         55
                    1.8362     1.9254     1.9925     2.0451     2.1640
                     A          A          A          A          A   
    1  O  1  S    0.001420  -0.015351  -0.000130  -0.014377  -0.006976
    2  O  1  S    0.017037   0.000940  -0.303653  -0.405131  -0.094588
    3  O  1  X    0.001053  -0.030943   0.110643  -0.057111  -0.028523
    4  O  1  Y    0.005332  -0.077506   0.254343   0.196641  -0.027105
    5  O  1  Z    0.036052  -0.015013   0.041438   0.025175   0.002713
    6  O  1  S   -0.087992   0.346497   0.481470   1.326878   0.453140
    7  O  1  X   -0.000706   0.127415  -0.150687   0.286378   0.105050
    8  O  1  Y    0.026129  -0.091015  -0.205663  -0.450601  -0.172321
    9  O  1  Z   -0.053255   0.002606  -0.040371  -0.049316  -0.041150
   10  O  1 XX   -0.084257  -0.398966   0.081343  -0.600565   0.206480
   11  O  1 YY    0.002546   0.001403  -0.091177   0.004106  -0.043687
   12  O  1 ZZ    0.089298   0.322794  -0.176978   0.356909  -0.195439
   13  O  1 XY   -0.112848   0.175812   0.220104  -0.305529  -0.095453
   14  O  1 XZ    0.829807  -0.031382   0.018376  -0.111792  -0.049234
   15  O  1 YZ    0.016577  -0.048954   0.016690  -0.072622   0.052612
   16  C  2  S   -0.000305   0.001521  -0.021241  -0.001134   0.032149
   17  C  2  S    0.005770   0.188717   0.167056   0.032035   0.262754
   18  C  2  X   -0.005774   0.047260   0.218408  -0.163597   0.077781
   19  C  2  Y   -0.002756  -0.116278   0.027810   0.189275  -0.017836
   20  C  2  Z    0.068163  -0.014017   0.009748   0.011918   0.009010
   21  C  2  S    0.013302  -0.938645  -0.504860  -1.403391  -1.112502
   22  C  2  X    0.023547  -0.711584  -0.059810  -1.610161  -0.517105
   23  C  2  Y    0.058978   0.099004  -0.097147  -0.647199   0.115889
   24  C  2  Z    0.120743  -0.043255   0.003722  -0.155076   0.036912
   25  C  2 XX    0.001676   0.158798  -0.437042  -0.006679  -0.362683
   26  C  2 YY    0.032085  -0.109437   0.391332   0.207702  -0.103890
   27  C  2 ZZ   -0.037776  -0.118289  -0.011304  -0.303841   0.514493
   28  C  2 XY    0.016773   0.084807  -0.090876   0.172607   0.079381
[...]

          ATOMIC WEIGHTS (AMU)

    1     O                15.99491
    2     C                12.00000
    3     C                12.00000
    4     C                12.00000
    5     H                 1.00782
    6     H                 1.00782
    7     H                 1.00782
    8     H                 1.00782

 MODES    1 TO    6 ARE TAKEN AS ROTATIONS AND TRANSLATIONS.

 ANALYZING SYMMETRY OF NORMAL MODES...

     FREQUENCIES IN CM**-1, IR INTENSITIES IN DEBYE**2/AMU-ANGSTROM**2,
     REDUCED MASSES IN AMU.

                            1           2           3           4           5
       FREQUENCY:         0.11        0.10        0.07        4.45        5.67  
        SYMMETRY:         A           A           A           A           A   
    REDUCED MASS:      7.06375     6.91111     7.00317     5.69815     4.22141
    IR INTENSITY:      0.00002     0.00003     0.00001     0.09649     0.06776

  1   O            X  0.13204670 -0.00316930  0.03146012 -0.00311711 -0.12012298
                   Y -0.03008844 -0.01975723  0.12849812 -0.01377614 -0.07572378
                   Z -0.00127495  0.12933291  0.01857925  0.17466484 -0.00919534
  2   C            X  0.12987542 -0.00319659  0.03133209 -0.00087741 -0.00098605
                   Y -0.02984848 -0.01995593  0.12839446 -0.00386267 -0.08827316
                   Z -0.00147943  0.13170262  0.01993432  0.05514615 -0.00603479
  3   C            X  0.12815213 -0.00323472  0.03123803  0.00159650  0.09342929
                   Y -0.03186020 -0.02015441  0.12817246  0.01113798  0.02243819
                   Z -0.00180595  0.13394616  0.02125230 -0.10749477  0.00471660
  4   C            X  0.12889145 -0.00324282  0.03127980  0.00311212  0.05273563
                   Y -0.03414201 -0.02005818  0.12809539  0.01166484  0.14714595
                   Z -0.00187971  0.13352989  0.02103103 -0.13465430  0.01141605
  5   H            X  0.12904242 -0.00321586  0.03129284 -0.00027640  0.04446010
                   Y -0.02803105 -0.01998484  0.12845877 -0.00586089 -0.18759629
                   Z -0.00142630  0.13232376  0.02026101  0.06248801 -0.01133158
  6   H            X  0.12625433 -0.00324336  0.03111756  0.00266712  0.19724558
                   Y -0.03138520 -0.02035839  0.12807296  0.02115002 -0.00273407
                   Z -0.00197723  0.13595191  0.02240293 -0.20362130  0.00684541
  7   H            X  0.13078728 -0.00322085  0.03139195  0.00205071 -0.05136569
                   Y -0.03456465 -0.01984052  0.12818881  0.00146589  0.16956995
                   Z -0.00169992  0.13150888  0.01986895 -0.03660363  0.00895026
  8   H            X  0.12765290 -0.00324590  0.03117752  0.00566208  0.12082806
                   Y -0.03561997 -0.02017087  0.12792415  0.02186589  0.22867361
                   Z -0.00211288  0.13516109  0.02198195 -0.25310197  0.01925114

 TRANS. SAYVETZ    X  7.27286001 -0.17980930  1.75535874  0.00629937  0.13439313
                   Y -1.76208516 -1.11902079  7.18791970  0.04585682 -0.02592299
                   Z -0.08964657  7.39794392  1.12896141  0.11550307 -0.00200355
               TOTAL  7.48381409  7.48425769  7.48478642  0.12443268  0.13688509

   ROT. SAYVETZ    X  0.01853488 -0.18287548 -0.10635710 11.74134132 -0.42819162
                   Y  0.03505283 -0.14195935 -0.08315457 11.82939171 -1.51873677
                   Z -0.34913965 -0.01229054 -0.02546638  1.18903926 19.15633484
               TOTAL  0.35138403  0.23183390  0.13738651 16.70950085 19.22121416

                            6           7           8           9          10
       FREQUENCY:        12.44      187.01      288.01      562.24      685.11  
        SYMMETRY:         A           A           A           A           A   
    REDUCED MASS:      2.51544     1.84382     3.58498     1.25513     2.78111
    IR INTENSITY:      0.05760     0.16545     0.16490     0.15031     0.25523

  1   O            X -0.00257182 -0.00289922  0.14404432 -0.00358754  0.07751518
                   Y -0.00669367  0.00792073 -0.04869304  0.00008557 -0.08547552
                   Z  0.07136785 -0.08293420 -0.00303253  0.02879471 -0.00576623
  2   C            X  0.00226084 -0.00032856 -0.01061543  0.00538273 -0.11318119
                   Y  0.00945861 -0.00967347 -0.03420936  0.00242630 -0.05072076
                   Z -0.12471144  0.12285056  0.00047762 -0.01093655 -0.00639488
  3   C            X  0.00466616  0.00381336 -0.04596014  0.00369580 -0.02665001
                   Y  0.01057558  0.01262098 -0.06024266  0.00734896  0.14806632
                   Z -0.10228495 -0.11214959 -0.00999190 -0.12625334  0.00803314
  4   C            X -0.00364102  0.00003514 -0.10811846 -0.00250422  0.02360532
                   Y -0.01135549 -0.00934692  0.12228757 -0.00306289  0.03331159
                   Z  0.14534274  0.06122364  0.00978097  0.02447879  0.00433435
  5   H            X  0.00466241 -0.00072346 -0.05885989  0.00587383 -0.13143679
                   Y  0.02425102 -0.04575771  0.07588235 -0.03001573 -0.01094794
                   Z -0.33878999  0.51260515  0.02101188  0.31831612  0.00786117
  6   H            X  0.01226374  0.00712698  0.03196789 -0.01167022  0.10597735
                   Y  0.02940907  0.03564534 -0.07594505 -0.03965405  0.11276210
                   Z -0.29580812 -0.33609891 -0.01548689  0.34985965  0.02621116
  7   H            X -0.01198280 -0.00360824 -0.31682550 -0.00072727  0.39121068
                   Y -0.02981043 -0.03874109  0.16573070  0.04219999 -0.04830214
                   Z  0.33565893  0.34512058  0.01517918 -0.40360873 -0.00438032
  8   H            X -0.00267344  0.00118172  0.01867635 -0.01484187 -0.21201947
                   Y -0.01135406 -0.00061410  0.27615693 -0.05377981 -0.25275988
                   Z  0.16476824 -0.06216700  0.02383541  0.62044157 -0.00919826

 TRANS. SAYVETZ    X  0.00058342 -0.00012527  0.00006297 -0.00002327  0.00007257
                   Y  0.00967310  0.00004381  0.00046795  0.00003171 -0.00009438
                   Z  0.02645773 -0.00037469 -0.00041673 -0.00003062  0.00009507
               TOTAL  0.02817659  0.00039750  0.00062976  0.00004985  0.00015236

   ROT. SAYVETZ    X  4.44495998 -0.01102555 -0.02410120 -0.00574377  0.00384834
                   Y -8.39566894  0.04019605 -0.00069447  0.00667434 -0.00696875
                   Z -0.39936702  0.01632063  0.02248946 -0.00098274  0.00254142
               TOTAL  9.50812390  0.04476213  0.03297159  0.00886022  0.00835655

                           11          12          13          14          15
       FREQUENCY:       940.23     1001.84     1031.10     1039.39     1077.56  
        SYMMETRY:         A           A           A           A           A   
    REDUCED MASS:      3.17097     1.36018     1.14756     1.61964     1.47165
    IR INTENSITY:      1.43676     0.33655     0.42643     0.29992     0.12162

  1   O            X -0.01865605  0.00015287 -0.00116967 -0.00125998 -0.02076647
                   Y -0.03153867  0.00039164  0.00063193 -0.00166790  0.04613477
                   Z -0.00313251 -0.00659769  0.02276528  0.03533181  0.00156468
  2   C            X  0.19377622 -0.00014813  0.00120331  0.00391505  0.02617697
                   Y -0.04499847 -0.00205890  0.00849083  0.01284913  0.01142189
                   Z -0.00077088  0.02327812 -0.08959793 -0.15047076  0.01095021
  3   C            X -0.06056213 -0.00201215  0.00129419 -0.00232130  0.02385907
                   Y  0.08265672 -0.00613945 -0.00408236 -0.01274307 -0.11577304
                   Z  0.00791249  0.06272761 -0.01205425  0.09817426 -0.01283756
  4   C            X -0.09742812  0.00441116 -0.00042866 -0.00254441 -0.06237491
                   Y  0.02420239  0.01344158  0.00740292  0.00295031  0.07851528
                   Z -0.00067827 -0.13705613 -0.04525975  0.00377253  0.00714997
  5   H            X  0.26708446  0.00037577 -0.00214868 -0.00022745 -0.01295903
                   Y -0.20880102  0.00701411 -0.02092564 -0.05029861  0.11131294
                   Z -0.02300871 -0.08760781  0.30657229  0.61783360 -0.02588072
  6   H            X -0.20405239  0.00399139  0.00620737  0.02483004  0.46385993
                   Y  0.12522177  0.02856129 -0.07016944  0.03489423 -0.22012418
                   Z  0.01454584 -0.27563833  0.59569466 -0.40801437 -0.02191270
  7   H            X  0.04808625 -0.01381045 -0.00245141  0.02164266  0.39239148
                   Y -0.01271187 -0.03903518 -0.06328355  0.01607312 -0.02571421
                   Z  0.00694174  0.39286831  0.61984459 -0.17158152 -0.00697090
  8   H            X -0.24111181 -0.01978709 -0.00768167 -0.01493271 -0.36681410
                   Y -0.13955946 -0.06518952  0.00371212 -0.01058958 -0.29005253
                   Z -0.02584135  0.68294417 -0.13413914 -0.02120878 -0.03275069

 TRANS. SAYVETZ    X  0.00001911 -0.00000337 -0.00000452 -0.00000359 -0.00001756
                   Y  0.00017336 -0.00000334 -0.00000121  0.00000008 -0.00000936
                   Z -0.00012076  0.00000803  0.00001884  0.00000367 -0.00002143
               TOTAL  0.00021214  0.00000933  0.00001941  0.00000514  0.00002925

   ROT. SAYVETZ    X  0.00286365  0.00058235  0.00052753 -0.00058818 -0.00042397
                   Y  0.00164210 -0.00092900  0.00053708  0.00096692 -0.00432280
                   Z -0.00279235  0.00101431  0.00155179  0.00030790 -0.00204512
               TOTAL  0.00432368  0.00149365  0.00172476  0.00117290  0.00480092

                           16          17          18          19          20
       FREQUENCY:      1325.72     1445.46     1453.23     1686.17     1806.53  
        SYMMETRY:         A           A           A           A           A   
    REDUCED MASS:      1.32221     1.15987     1.29849     4.71127     7.63625
    IR INTENSITY:      0.06055     0.06817     0.94121     1.65950     2.29317

  1   O            X  0.00546420 -0.03308332 -0.02747814 -0.00089670 -0.01401498
                   Y  0.01271465 -0.05170669 -0.03516078 -0.04874610 -0.13937819
                   Z  0.00109333 -0.00447582 -0.00312773 -0.00402081 -0.01187817
  2   C            X  0.00454281  0.04620586  0.07509758 -0.02523377  0.01380022
                   Y -0.00255961 -0.00674423 -0.01320600  0.07160314  0.21278895
                   Z -0.00001714 -0.00071031 -0.00036701  0.00550745  0.01829651
  3   C            X  0.01318064  0.06036245 -0.09887623  0.18145265 -0.05501613
                   Y  0.09728424  0.02364721  0.03081212  0.02084181 -0.02684426
                   Z  0.01084376  0.00347206  0.00032352  0.00709888 -0.00387671
  4   C            X -0.05289673  0.01857902 -0.01296301 -0.16410562  0.04619613
                   Y -0.09309806  0.00437512 -0.03027998 -0.04500190  0.01761260
                   Z -0.01097780  0.00086925 -0.00326961 -0.00949976  0.00308805
  5   H            X  0.06726530 -0.25579203 -0.12342324 -0.01309939  0.13904495
                   Y -0.11850269  0.69824777  0.46710952  0.02244037 -0.10940899
                   Z -0.00932727  0.05860885  0.03819824  0.00240019 -0.00948377
  6   H            X  0.71837347 -0.10587969  0.25687909 -0.12154990  0.10041656
                   Y -0.06149832  0.07081937 -0.04929945  0.11208784 -0.07461037
                   Z  0.01131040  0.00567613  0.00056783  0.00881983 -0.00507577
  7   H            X -0.44139189 -0.36633392  0.37963457  0.21058157 -0.05427740
                   Y -0.01497403  0.08209088 -0.10736499 -0.14283884  0.05011369
                   Z -0.01526957 -0.00178155 -0.00091243 -0.00762931  0.00410202
  8   H            X -0.01214607 -0.23706211  0.36053390  0.03219067 -0.02202111
                   Y -0.02614626 -0.28389784  0.39867756  0.21710908 -0.07779152
                   Z -0.00229378 -0.03468090  0.05108912  0.02320685 -0.00946060

 TRANS. SAYVETZ    X  0.00001957 -0.00001600  0.00005015 -0.00001448  0.00003394
                   Y  0.00003679 -0.00000770  0.00019181  0.00005949 -0.00000789
                   Z -0.00002852  0.00002183 -0.00014615 -0.00002640  0.00002999
               TOTAL  0.00005049  0.00002814  0.00024630  0.00006668  0.00004597

   ROT. SAYVETZ    X  0.00092231  0.00000927 -0.00274792 -0.00084496  0.00013597
                   Y -0.00162500 -0.00091451  0.00002881  0.00002223  0.00016418
                   Z  0.00093590 -0.00110390 -0.00144945 -0.00040284  0.00060286
               TOTAL  0.00208978  0.00143353  0.00310689  0.00093634  0.00063944

                           21          22          23          24
       FREQUENCY:      2921.88     3168.21     3181.76     3260.30  
        SYMMETRY:         A           A           A           A   
    REDUCED MASS:      1.08439     1.06024     1.09040     1.11776
    IR INTENSITY:      3.66122     0.18656     0.26709     0.08623

  1   O            X  0.00048374  0.00032263 -0.00002797  0.00013588
                   Y -0.00177098  0.00048913 -0.00027962  0.00028255
                   Z -0.00014834  0.00003980 -0.00003782  0.00002401
  2   C            X -0.07492531 -0.00227704 -0.00472010 -0.00046069
                   Y -0.02808723 -0.00109953  0.00081858 -0.00020767
                   Z -0.00271603 -0.00011294  0.00005631 -0.00002460
  3   C            X  0.00210393 -0.00535456 -0.02201372 -0.00290333
                   Y  0.00207273 -0.03916704 -0.06916096 -0.00876011
                   Z  0.00026945 -0.00406548 -0.00755654 -0.00096091
  4   C            X -0.00031196 -0.05184203  0.03303749  0.03331878
                   Y  0.00003740 -0.01462194  0.02097758 -0.08770519
                   Z -0.00000093 -0.00313585  0.00315136 -0.00764874
  5   H            X  0.87974531  0.01571818  0.03771271 -0.00012195
                   Y  0.37213285  0.00507009  0.00941026 -0.00090844
                   Z  0.03538602  0.00048513  0.00092310 -0.00004393
  6   H            X -0.02014668  0.11249052  0.18599347  0.02386726
                   Y -0.03967178  0.47684227  0.78361941  0.09124488
                   Z -0.00454638  0.05087387  0.08354562  0.00980700
  7   H            X  0.00456217  0.11462681 -0.08383547  0.14259473
                   Y  0.00636593  0.55807030 -0.40626841  0.62204289
                   Z  0.00077042  0.05925913 -0.04312018  0.06652232
  8   H            X -0.00103874  0.46020083 -0.21448497 -0.52516095
                   Y -0.00145687 -0.39411553  0.18163807  0.43420763
                   Z -0.00007480 -0.02423744  0.01102749  0.02613558

 TRANS. SAYVETZ    X  0.00001329  0.00001450 -0.00000151  0.00000186
                   Y -0.00004172  0.00008267 -0.00000316  0.00000281
                   Z  0.00003919 -0.00007811 -0.00000540 -0.00000455
               TOTAL  0.00005876  0.00011465  0.00000644  0.00000567

   ROT. SAYVETZ    X -0.00022145  0.00052053  0.00021636 -0.00013957
                   Y  0.00056433  0.00013304 -0.00021979 -0.00032918
                   Z  0.00025976 -0.00011782 -0.00006904 -0.00005501
               TOTAL  0.00065954  0.00055003  0.00031605  0.00036175

 REFERENCE ON SAYVETZ CONDITIONS - A. SAYVETZ, J.CHEM.PHYS., 7, 383-389(1939).

 NOTE - THE MODES J,K ARE ORTHONORMALIZED ACCORDING TO
 SUM ON I   M(I) * (X(I,J)*X(I,K) + Y(I,J)*Y(I,K) + Z(I,J)*Z(I,K)) = DELTA(J,K)

  MODE FREQ(CM**-1)  SYMMETRY  RED. MASS  IR INTENS.
     1       0.105    A        7.063754    0.000022
     2       0.099    A        6.911113    0.000028
     3       0.070    A        7.003172    0.000010
     4       4.453    A        5.698150    0.096488
     5       5.674    A        4.221412    0.067755
     6      12.439    A        2.515439    0.057598
     7     187.010    A        1.843817    0.165452
     8     288.011    A        3.584979    0.164904
     9     562.244    A        1.255128    0.150312
    10     685.110    A        2.781109    0.255234
    11     940.235    A        3.170973    1.436760
    12    1001.842    A        1.360179    0.336545
    13    1031.100    A        1.147557    0.426427
    14    1039.390    A        1.619643    0.299922
    15    1077.564    A        1.471655    0.121616
    16    1325.725    A        1.322215    0.060551
    17    1445.462    A        1.159873    0.068175
    18    1453.234    A        1.298487    0.941209
    19    1686.169    A        4.711274    1.659505
    20    1806.534    A        7.636252    2.293170
    21    2921.878    A        1.084393    3.661216
    22    3168.207    A        1.060239    0.186561
    23    3181.756    A        1.090401    0.267088
    24    3260.297    A        1.117757    0.086228

     -------------------------------
     THERMOCHEMISTRY AT T=  298.15 K
     -------------------------------

 USING IDEAL GAS, RIGID ROTOR, HARMONIC NORMAL MODE APPROXIMATIONS.
 P=  1.01325E+05 PASCAL.
 ALL FREQUENCIES ARE SCALED BY   1.00000
 THE MOMENTS OF INERTIA ARE (IN AMU*BOHR**2)
             79.05623           290.58698           369.62309
 THE ROTATIONAL SYMMETRY NUMBER IS  1.0
 THE ROTATIONAL CONSTANTS ARE (IN GHZ)
     22.80767     6.20499     4.87818
      7 -     24 VIBRATIONAL MODES ARE USED IN THERMOCHEMISTRY.
 THE HARMONIC ZERO POINT ENERGY IS (SCALED BY   1.000)
        0.061651 HARTREE/MOLECULE    13530.883237 CM**-1/MOLECULE 
       38.686775 KCAL/MOL              161.865468 KJ/MOL

               Q               LN Q
 ELEC.     1.00000E+00       0.000000
 TRANS.    1.64832E+07      16.617850
 ROT.      3.29858E+04      10.403833
 VIB.      2.59722E+00       0.954440
 TOT.      1.41213E+12      27.976123

              E         H         G         CV        CP        S
           KJ/MOL    KJ/MOL    KJ/MOL   J/MOL-K   J/MOL-K   J/MOL-K
 ELEC.      0.000     0.000     0.000     0.000     0.000     0.000
 TRANS.     3.718     6.197   -41.195    12.472    20.786   158.954
 ROT.       3.718     3.718   -25.790    12.472    12.472    98.973
 VIB.     165.850   165.850   159.499    32.240    32.240    21.301
 TOTAL    173.287   175.766    92.514    57.184    65.498   279.228
 VIB. THERMAL CORRECTION E(T)-E(0) = H(T)-H(0) =      3984.793 J/MOL

              E         H         G         CV        CP        S
         KCAL/MOL  KCAL/MOL  KCAL/MOL CAL/MOL-K CAL/MOL-K CAL/MOL-K
 ELEC.      0.000     0.000     0.000     0.000     0.000     0.000
 TRANS.     0.889     1.481    -9.846     2.981     4.968    37.991
 ROT.       0.889     0.889    -6.164     2.981     2.981    23.655
 VIB.      39.639    39.639    38.121     7.706     7.706     5.091
 TOTAL     41.417    42.009    22.111    13.667    15.654    66.737
 VIB. THERMAL CORRECTION E(T)-E(0) = H(T)-H(0) =       952.388 CAL/MOL
 ......END OF NORMAL COORDINATE ANALYSIS......
 STEP CPU TIME =     0.00 TOTAL CPU TIME =        749.0 (     12.5 MIN)
 TOTAL WALL CLOCK TIME=        787.8 SECONDS, CPU UTILIZATION IS    95.08%
               1080583  WORDS OF DYNAMIC MEMORY USED
 EXECUTION OF GAMESS TERMINATED NORMALLY Tue Oct  4 21:29:51 2022
 DDI: 263640 bytes (0.3 MB / 0 MWords) used by master data server.

 ----------------------------------------
 CPU timing information for all processes
 ========================================
 0: 743.227 + 5.812 = 749.40
 ----------------------------------------
 ddikick.x: exited gracefully.
----- accounting info -----
Files used on the master node chemcompute-node-0.novalocal were:
-rw-r--r--. 1 chemcomp chemcomp     1031 Oct  4 21:16 /scratch/120800/460757.F05
-rw-rw-r--. 1 chemcomp chemcomp 65536000 Oct  4 21:29 /scratch/120800/460757.F10
-rw-rw-r--. 1 chemcomp chemcomp  4143136 Oct  4 21:29 /scratch/120800/460757.F22
Tue Oct  4 21:29:54 UTC 2022
0.091u 0.045s 13:11.09 0.0%	0+0k 8+216io 0pf+0w
Finishing Up...
Looking for IR data...
Looking for Raman data...
vibramans not found
Looking for thermodynamics data...
Looking for UV-Vis data...
chemcompute.org
{'UTCtimestamp': '2022-10-04T21:29:56.315068', 'cluster': 'jetstream2', 'clusterJobNumber': '120800', 'status': 'COMPLETE', 'nodeList': 'chemcompute-node-0'}
120800
