chemcompute.org
{'UTCtimestamp': '2022-10-04T20:46:09.800785', 'cluster': 'jetstream2', 'clusterJobNumber': '120778', 'status': 'RUNNING', 'nodeList': 'chemcompute-node-1'}
----- GAMESS execution script 'rungms' -----
This job is running on host chemcompute-node-1.novalocal
under operating system Linux at Tue Oct 4 20:46:14 UTC 2022
SLURM has assigned the following compute nodes to this run:
Available scratch disk space (Kbyte units) at beginning of the job is
Filesystem     1K-blocks     Used Available Use% Mounted on
/dev/sda1       62903276 10942712  51960564  18% /
GAMESS temporary binary files will be written to /scratch/120778
GAMESS supplementary output files will be written to /data/slurm/46/460730
Copying input file 460730.inp to your run's scratch directory...
The generated host list is
chemcompute-node-1.novalocal

 Distributed Data Interface kickoff program.
 Initiating 1 compute processes on 1 nodes to run the following command:
 /data/gamess-2019R1-avx2-ddi/gamess.00.x 460730 

          ******************************************************
          *         GAMESS VERSION = 30 JUN 2019 (R1)          *
          *             FROM IOWA STATE UNIVERSITY             *
          * M.W.SCHMIDT, K.K.BALDRIDGE, J.A.BOATZ, S.T.ELBERT, *
          *   M.S.GORDON, J.H.JENSEN, S.KOSEKI, N.MATSUNAGA,   *
          *          K.A.NGUYEN, S.J.SU, T.L.WINDUS,           *
          *       TOGETHER WITH M.DUPUIS, J.A.MONTGOMERY       *
          *         J.COMPUT.CHEM.  14, 1347-1363(1993)        *
          **************** 64 BIT INTEL VERSION ****************

  SINCE 1993, STUDENTS AND POSTDOCS WORKING AT IOWA STATE UNIVERSITY
  AND ALSO IN THEIR VARIOUS JOBS AFTER LEAVING ISU HAVE MADE IMPORTANT
  CONTRIBUTIONS TO THE CODE:
     IVANA ADAMOVIC, CHRISTINE AIKENS, YURI ALEXEEV, POOJA ARORA,
     ANDREY ASADCHEV, ROB BELL, PRADIPTA BANDYOPADHYAY, JONATHAN BENTZ,
     COLLEEN BERTONI, BRETT BODE, KURT BRORSEN, CALEB CARLIN, GALINA CHABAN,
     WEI CHEN, CHEOL HO CHOI, PAUL DAY, ALBERT DEFUSCO, NUWAN DESILVA,
     TIM DUDLEY, DMITRI FEDOROV, ALEX FINDLATER, GRAHAM FLETCHER, 
     MARK FREITAG, KURT GLAESEMANN, ANASTASIA GUNINA,
     DAN KEMP, GRANT MERRILL, NORIYUKI MINEZAWA, JONATHAN MULLIN,
     TAKESHI NAGATA, SEAN NEDD, HEATHER NETZLOFF, BOSILJKA NJEGIC, RYAN OLSON,
     MIKE PAK, BUU PHAM,
     SPENCER PRUITT, LUKE ROSKOP, JIM SHOEMAKER, LYUDMILA SLIPCHENKO,
     TONY SMITH, SAROM SOK LEANG, JIE SONG, TETSUYA TAKETSUGU, SIMON WEBB,
     PENG XU, SOOHAENG YOO, FEDERICO ZAHARIEV

  ADDITIONAL CODE HAS BEEN PROVIDED BY COLLABORATORS IN OTHER GROUPS:
     IOWA STATE UNIVERSITY:
          JOE IVANIC, AARON WEST, LAIMUTIS BYTAUTAS, KLAUS RUEDENBERG
     UNIVERSITY OF TOKYO: KIMIHIKO HIRAO, TAKAHITO NAKAJIMA,
          TAKAO TSUNEDA, MUNEAKI KAMIYA, SUSUMU YANAGISAWA,
          KIYOSHI YAGI, MAHITO CHIBA, SEIKEN TOKURA, NAOAKI KAWAKAMI
     UNIVERSITY OF AARHUS: FRANK JENSEN
     UNIVERSITY OF IOWA: VISVALDAS KAIRYS, HUI LI
     NATIONAL INST. OF STANDARDS AND TECHNOLOGY: WALT STEVENS, DAVID GARMER
     UNIVERSITY OF PISA: BENEDETTA MENNUCCI, JACOPO TOMASI
     UNIVERSITY OF MEMPHIS: HENRY KURTZ, PRAKASHAN KORAMBATH
     UNIVERSITY OF ALBERTA: TOBY ZENG, MARIUSZ KLOBUKOWSKI
     UNIVERSITY OF NEW ENGLAND: MARK SPACKMAN
     MIE UNIVERSITY: HIROAKI UMEDA
     NAT. INST. OF ADVANCED INDUSTRIAL SCIENCE AND TECHNOLOGY: KAZUO KITAURA
     MICHIGAN STATE UNIVERSITY:
          KAROL KOWALSKI, MARTA WLOCH, JEFFREY GOUR, JESSE LUTZ,
          WEI LI, JUN SHEN, J. EMILIANO DEUSTUA, PIOTR PIECUCH
     UNIVERSITY OF MINNESOTA:
          YINAN SHU
     UNIVERSITY OF SILESIA: MONIKA MUSIAL, STANISLAW KUCHARSKI
     FACULTES UNIVERSITAIRES NOTRE-DAME DE LA PAIX:
          OLIVIER QUINET, BENOIT CHAMPAGNE
     UNIVERSITY OF CALIFORNIA - SANTA BARBARA: BERNARD KIRTMAN
     INSTITUTE FOR MOLECULAR SCIENCE:
          KAZUYA ISHIMURA, MICHIO KATOUDA, AND SHIGERU NAGASE
     UNIVERSITY OF NOTRE DAME: ANNA POMOGAEVA, DAN CHIPMAN
     KYUSHU UNIVERSITY:
          HARUYUKI NAKANO,
          FENG LONG GU, JACEK KORCHOWIEC, MARCIN MAKOWSKI, AND YURIKO AOKI,
          HIROTOSHI MORI AND EISAKU MIYOSHI
     PENNSYLVANIA STATE UNIVERSITY:
          TZVETELIN IORDANOV, CHET SWALINA, JONATHAN SKONE,
          SHARON HAMMES-SCHIFFER
     WASEDA UNIVERSITY:
          MASATO KOBAYASHI, TOMOKO AKAMA, TSUGUKI TOUMA,
          TAKESHI YOSHIKAWA, YASUHIRO IKABATA, JUNJI SEINO,
          YUYA NAKAJIMA, HIROMI NAKAI
     NANJING UNIVERSITY: SHUHUA LI
     UNIVERSITY OF NEBRASKA:
          PEIFENG SU, DEJUN SI, NANDUN THELLAMUREGE, YALI WANG, HUI LI
     UNIVERSITY OF ZURICH: ROBERTO PEVERATI, KIM BALDRIDGE
     N. COPERNICUS UNIVERSITY AND JACKSON STATE UNIVERSITY:
          MARIA BARYSZ
     UNIVERSITY OF COPENHAGEN: Jimmy Kromann, CASPER STEINMANN
     TOKYO INSTITUTE OF TECHNOLOGY: HIROYA NAKATA
     NAGOYA UNIVERSITY: YOSHIO NISHIMOTO, STEPHAN IRLE
     MOSCOW STATE UNIVERSITY: VLADIMIR MIRONOV
     A.N.NESMEYANOV INSTITUTE OF ORGANOELEMENT COMPOUNDS OF RUSSIAN ACADEMY OF SCIENCES:
          IGOR S. GERASIMOV

 EXECUTION OF GAMESS BEGUN Tue Oct  4 20:46:14 2022

            ECHO OF THE FIRST FEW INPUT CARDS -
 INPUT CARD>!                                                                               
 INPUT CARD>!   GAMESS Calculation input file                                               
 INPUT CARD>!   Molecula de prueba JIMB                                                     
 INPUT CARD>!                                                                               
 INPUT CARD> $CONTRL SCFTYP=RHF MAXIT=200 RUNTYP=OPTIMIZE                                   
 INPUT CARD>         COORD=UNIQUE MULT=1                                                    
 INPUT CARD>         ICHARG=0                                                               
 INPUT CARD>         DFTTYP=B3LYP                                                           
 INPUT CARD>         MOLPLT=.FALSE. PLTORB=.FALSE.  $END                                    
 INPUT CARD> $SYSTEM TIMLIM=2879 MWORDS=250  $END                                           
 INPUT CARD>                                                                                
 INPUT CARD> $FORCE METHOD=SEMINUM NVIB=2 $END                                              
 INPUT CARD> $STATPT OPTTOL=0.0005 NSTEP=999 $END                                           
 INPUT CARD> $STATPT IHREP=0 HSSEND=.TRUE.  $END                                            
 INPUT CARD>                                                                                
 INPUT CARD> $DFT    METHOD=GRID  NLEB=590  $END                                            
 INPUT CARD>                                                                                
 INPUT CARD> $BASIS  GBASIS=N31 NGAUSS=6                                                    
 INPUT CARD>         NDFUNC=1   NPFUNC=0  $END                                              
 INPUT CARD>                                                                                
 INPUT CARD> $SCF    DIRSCF=.T. $END                                                        
 INPUT CARD> $GUESS  GUESS=HUCKEL  $END                                                     
 INPUT CARD>                                                                                
 INPUT CARD> $DATA                                                                          
 INPUT CARD>   Molecula de prueba JIMB                                                      
 INPUT CARD>  Cs                                                                            
 INPUT CARD>                                                                                
 INPUT CARD>C     6.0     0.86     0.93     0.00                                            
 INPUT CARD>C     6.0    -0.34     0.33    -0.00                                            
 INPUT CARD>C     6.0    -0.50    -1.15     0.00                                            
 INPUT CARD>H     1.0     1.78     0.37     0.00                                            
 INPUT CARD>H     1.0     0.93     2.01    -0.00                                            
 INPUT CARD>H     1.0    -1.24     0.93    -0.00                                            
 INPUT CARD>H     1.0    -0.06    -1.60     0.89                                            
 INPUT CARD>H     1.0    -1.57    -1.41    -0.00                                            
 INPUT CARD> $END                                                                           
 INPUT CARD>                                                                                
 INPUT CARD>                                                                                
 INPUT CARD>! Customizations after this line are persisted when using Do More Calculations  
  250000000 WORDS OF MEMORY AVAILABLE

     BASIS OPTIONS
     -------------
     GBASIS=N31          IGAUSS=       6      POLAR=POPN31  
     NDFUNC=       1     NFFUNC=       0     DIFFSP=       F
     NPFUNC=       0      DIFFS=       F     BASNAM=        


     RUN TITLE
     ---------
    Molecula de prueba JIMB                                                      

 THE POINT GROUP OF THE MOLECULE IS CS      
 THE ORDER OF THE PRINCIPAL AXIS IS     0

 ATOM      ATOMIC                      COORDINATES (BOHR)
           CHARGE         X                   Y                   Z
 C           6.0     1.6251643494        1.7574451686        0.0000000000
 C           6.0    -0.6425068358        0.6236095759        0.0000000000
 C           6.0    -0.9448629939       -2.1731848859        0.0000000000
 H           1.0     3.3637122581        0.6991986155        0.0000000000
 H           1.0     1.7574451686        3.7983492353        0.0000000000
 H           1.0    -2.3432602248        1.7574451686        0.0000000000
 H           1.0    -0.1133835593       -3.0235615804       -1.6818561291
 H           1.0    -0.1133835593       -3.0235615804        1.6818561291
 H           1.0    -2.9668698007       -2.6645136427        0.0000000000

          INTERNUCLEAR DISTANCES (ANGS.)
          ------------------------------

                1 C          2 C          3 C          4 H          5 H     

   1 C       0.0000000    1.3416408 *  2.4851559 *  1.0770330 *  1.0822661 *
   2 C       1.3416408 *  0.0000000    1.4886235 *  2.1203773 *  2.1060152 *
   3 C       2.4851559 *  1.4886235 *  0.0000000    2.7402190 *  3.4685011  
   4 H       1.0770330 *  2.1203773 *  2.7402190 *  0.0000000    1.8471871 *
   5 H       1.0822661 *  2.1060152 *  3.4685011    1.8471871 *  0.0000000  
   6 H       2.1000000 *  1.0816654 *  2.2077137 *  3.0714817    2.4239018 *
   7 H       2.8353836 *  2.1436884 *  1.0900459 *  2.8387673 *  3.8476356  
   8 H       2.8353836 *  2.1436884 *  1.0900459 *  2.8387673 *  3.8476356  
   9 H       3.3734997    2.1308449 *  1.1011358 *  3.7935340    4.2363192  

                6 H          7 H          8 H          9 H     

   1 C       2.1000000 *  2.8353836 *  2.8353836 *  3.3734997  
   2 C       1.0816654 *  2.1436884 *  2.1436884 *  2.1308449 *
   3 C       2.2077137 *  1.0900459 *  1.0900459 *  1.1011358 *
   4 H       3.0714817    2.8387673 *  2.8387673 *  3.7935340  
   5 H       2.4239018 *  3.8476356    3.8476356    4.2363192  
   6 H       0.0000000    2.9300853 *  2.9300853 *  2.3631547 *
   7 H       2.9300853 *  0.0000000    1.7800000 *  1.7630372 *
   8 H       2.9300853 *  1.7800000 *  0.0000000    1.7630372 *
   9 H       2.3631547 *  1.7630372 *  1.7630372 *  0.0000000  

  * ... LESS THAN  3.000


     ATOMIC BASIS SET
     ----------------
 THE CONTRACTED PRIMITIVE FUNCTIONS HAVE BEEN UNNORMALIZED
 THE CONTRACTED BASIS FUNCTIONS ARE NOW NORMALIZED TO UNITY

  SHELL TYPE  PRIMITIVE        EXPONENT          CONTRACTION COEFFICIENT(S)

 C         

      1   S       1          3047.5248800    0.001834737132
      1   S       2           457.3695180    0.014037322813
      1   S       3           103.9486850    0.068842622264
      1   S       4            29.2101553    0.232184443216
      1   S       5             9.2866630    0.467941348435
      1   S       6             3.1639270    0.362311985337

      2   L       7             7.8682723   -0.119332419775    0.068999066591
      2   L       8             1.8812885   -0.160854151696    0.316423960957
      2   L       9             0.5442493    1.143456437840    0.744308290898

      3   L      10             0.1687145    1.000000000000    1.000000000000

      4   D      11             0.8000000    1.000000000000

 C         

      5   S      12          3047.5248800    0.001834737132
      5   S      13           457.3695180    0.014037322813
      5   S      14           103.9486850    0.068842622264
      5   S      15            29.2101553    0.232184443216
      5   S      16             9.2866630    0.467941348435
      5   S      17             3.1639270    0.362311985337

      6   L      18             7.8682723   -0.119332419775    0.068999066591
      6   L      19             1.8812885   -0.160854151696    0.316423960957
      6   L      20             0.5442493    1.143456437840    0.744308290898

      7   L      21             0.1687145    1.000000000000    1.000000000000

      8   D      22             0.8000000    1.000000000000

 C         

      9   S      23          3047.5248800    0.001834737132
      9   S      24           457.3695180    0.014037322813
      9   S      25           103.9486850    0.068842622264
      9   S      26            29.2101553    0.232184443216
      9   S      27             9.2866630    0.467941348435
      9   S      28             3.1639270    0.362311985337

     10   L      29             7.8682723   -0.119332419775    0.068999066591
     10   L      30             1.8812885   -0.160854151696    0.316423960957
     10   L      31             0.5442493    1.143456437840    0.744308290898

     11   L      32             0.1687145    1.000000000000    1.000000000000

     12   D      33             0.8000000    1.000000000000

 H         

     13   S      34            18.7311370    0.033494604338
     13   S      35             2.8253944    0.234726953484
     13   S      36             0.6401217    0.813757326146

     14   S      37             0.1612778    1.000000000000

 H         

     15   S      38            18.7311370    0.033494604338
     15   S      39             2.8253944    0.234726953484
     15   S      40             0.6401217    0.813757326146

     16   S      41             0.1612778    1.000000000000

 H         

     17   S      42            18.7311370    0.033494604338
     17   S      43             2.8253944    0.234726953484
     17   S      44             0.6401217    0.813757326146

     18   S      45             0.1612778    1.000000000000

 H         

     21   S      46            18.7311370    0.033494604338
     21   S      47             2.8253944    0.234726953484
     21   S      48             0.6401217    0.813757326146

     22   S      49             0.1612778    1.000000000000

 H         

     23   S      50            18.7311370    0.033494604338
     23   S      51             2.8253944    0.234726953484
     23   S      52             0.6401217    0.813757326146

     24   S      53             0.1612778    1.000000000000

 TOTAL NUMBER OF BASIS SET SHELLS             =   24
 NUMBER OF CARTESIAN GAUSSIAN BASIS FUNCTIONS =   57
 NUMBER OF ELECTRONS                          =   24
 CHARGE OF MOLECULE                           =    0
 SPIN MULTIPLICITY                            =    1
 NUMBER OF OCCUPIED ORBITALS (ALPHA)          =   12
 NUMBER OF OCCUPIED ORBITALS (BETA )          =   12
 TOTAL NUMBER OF ATOMS                        =    9
 THE NUCLEAR REPULSION ENERGY IS       70.9227239790

 SELECTED MURRAY-HANDY-LAMING RADIAL GRID

 LEGACY BECKE'S FUZZY CELL METHOD

 SELECTED ORIGINAL BECKE'S PARTITION FUNCTION

     LEBEDEV GRID-BASED DFT OPTIONS
     ------------------------------
     DFTTYP=B3LYP   
     NRAD  =      96     NLEB  =     590
     NRAD0 =      24     NLEB0 =     110
     SWOFF =    5.00E-03 (PURE SCF -> DFT)
     SWITCH=    3.00E-04 (COARSE -> TIGHT GRID)
     THRESH=    0.00E+00 GTHRE=    1.00E+00

 GRIMME'S EMPIRICAL DISPERSION CORRECTION= F

     $CONTRL OPTIONS
     ---------------
 SCFTYP=RHF          RUNTYP=OPTIMIZE     EXETYP=RUN     
 MPLEVL=       0     CITYP =NONE         CCTYP =NONE         VBTYP =NONE    
 DFTTYP=B3LYP        TDDFT =NONE    
 MULT  =       1     ICHARG=       0     NZVAR =       0     COORD =UNIQUE  
 PP    =NONE         RELWFN=NONE         LOCAL =NONE         NUMGRD=       F
 ISPHER=      -1     NOSYM =       0     MAXIT =     200     UNITS =ANGS    
 PLTORB=       F     MOLPLT=       F     AIMPAC=       F     FRIEND=        
 NPRINT=       7     IREST =       0     GEOM  =INPUT   
 NORMF =       0     NORMP =       0     ITOL  =      20     ICUT  =       9
 INTTYP=BEST         GRDTYP=BEST         QMTTOL= 1.0E-06

     $SYSTEM OPTIONS
     ---------------
  REPLICATED MEMORY=   250000000 WORDS (ON EVERY NODE).
 DISTRIBUTED MEMDDI=           0 MILLION WORDS IN AGGREGATE,
 MEMDDI DISTRIBUTED OVER   1 PROCESSORS IS           0 WORDS/PROCESSOR.
 TOTAL MEMORY REQUESTED ON EACH PROCESSOR=   250000000 WORDS.
 TIMLIM=        2879.00 MINUTES, OR       2.0 DAYS.
 PARALL= F  BALTYP=  DLB     KDIAG=    0  COREFL= F
 MXSEQ2=     300 MXSEQ3=     150  mem10=         0

          ----------------
          PROPERTIES INPUT
          ----------------

     MOMENTS            FIELD           POTENTIAL          DENSITY
 IEMOM =       1   IEFLD =       0   IEPOT =       0   IEDEN =       0
 WHERE =COMASS     WHERE =NUCLEI     WHERE =NUCLEI     WHERE =NUCLEI  
 OUTPUT=BOTH       OUTPUT=BOTH       OUTPUT=BOTH       OUTPUT=BOTH    
 IEMINT=       0   IEFINT=       0                     IEDINT=       0
                                                       MORB  =       0
          EXTRAPOLATION IN EFFECT
          DIIS IN EFFECT
 ORBITAL PRINTING OPTION: NPREO=     1    57     2     1

     -------------------------------
     INTEGRAL TRANSFORMATION OPTIONS
     -------------------------------
     NWORD  =            0
     CUTOFF = 1.0E-09     MPTRAN =       0
     DIRTRF =       T     AOINTS =DUP     

          ----------------------
          INTEGRAL INPUT OPTIONS
          ----------------------
 NOPK  =       1 NORDER=       0 SCHWRZ=       T

     ------------------------------------------
     THE POINT GROUP IS CS , NAXIS= 0, ORDER= 2
     ------------------------------------------

     DIMENSIONS OF THE SYMMETRY SUBSPACES ARE
 A'  =   43     A'' =   14

 ..... DONE SETTING UP THE RUN .....
 STEP CPU TIME =     0.01 TOTAL CPU TIME =          0.0 (      0.0 MIN)
 TOTAL WALL CLOCK TIME=          0.0 SECONDS, CPU UTILIZATION IS    33.33%


          -----------------------------
          STATIONARY POINT LOCATION RUN
          -----------------------------

 OBTAINING INITIAL HESSIAN, HESS=GUESS   
 CARTESIAN COORDINATE OPTIMIZATION USING BADGER'S RULE FORCE CONSTANT GUESS

          PARAMETERS CONTROLLING GEOMETRY SEARCH ARE
          METHOD =QA                  UPHESS =BFGS    
          NNEG   =         0          NFRZ   =         0
          NSTEP  =       999          IFOLOW =         1
          HESS   =GUESS               RESTAR =         F
          IHREP  =         0          HSSEND =         T
          NPRT   =         0          NPUN   =         0
          OPTTOL = 5.000E-04          RMIN   = 1.500E-03
          RMAX   = 1.000E-01          RLIM   = 7.000E-02
          DXMAX  = 3.000E-01          PURIFY =         F
          MOVIE  =         F          TRUPD  =         T
          TRMAX  = 5.000E-01          TRMIN  = 5.000E-02
          ITBMAT =         5          STPT   =         F
          STSTEP = 1.000E-02          PROJCT=          T

 BEGINNING GEOMETRY SEARCH POINT NSERCH=   0 ...

 COORDINATES OF SYMMETRY UNIQUE ATOMS (ANGS)
   ATOM   CHARGE       X              Y              Z
 ------------------------------------------------------------
 C           6.0   0.8600000000   0.9300000000   0.0000000000
 C           6.0  -0.3400000000   0.3300000000   0.0000000000
 C           6.0  -0.5000000000  -1.1500000000   0.0000000000
 H           1.0   1.7800000000   0.3700000000   0.0000000000
 H           1.0   0.9300000000   2.0100000000   0.0000000000
 H           1.0  -1.2400000000   0.9300000000   0.0000000000
 H           1.0  -0.0600000000  -1.6000000000   0.8900000000
 H           1.0  -1.5700000000  -1.4100000000   0.0000000000
 COORDINATES OF ALL ATOMS ARE (ANGS)
   ATOM   CHARGE       X              Y              Z
 ------------------------------------------------------------
 C           6.0   0.8600000000   0.9300000000   0.0000000000
 C           6.0  -0.3400000000   0.3300000000   0.0000000000
 C           6.0  -0.5000000000  -1.1500000000   0.0000000000
 H           1.0   1.7800000000   0.3700000000   0.0000000000
 H           1.0   0.9300000000   2.0100000000   0.0000000000
 H           1.0  -1.2400000000   0.9300000000   0.0000000000
 H           1.0  -0.0600000000  -1.6000000000  -0.8900000000
 H           1.0  -0.0600000000  -1.6000000000   0.8900000000
 H           1.0  -1.5700000000  -1.4100000000   0.0000000000

          ********************
          1 ELECTRON INTEGRALS
          ********************
 ...... END OF ONE-ELECTRON INTEGRALS ......
 STEP CPU TIME =     0.01 TOTAL CPU TIME =          0.0 (      0.0 MIN)
 TOTAL WALL CLOCK TIME=          0.1 SECONDS, CPU UTILIZATION IS    33.33%

          -------------
          GUESS OPTIONS
          -------------
          GUESS =HUCKEL            NORB  =       0          NORDER=       0
          MIX   =       F          PRTMO =       F          PUNMO =       F
          TOLZ  = 1.0E-08          TOLE  = 1.0E-05
          SYMDEN=       F          PURIFY=       F

 INITIAL GUESS ORBITALS GENERATED BY HUCKEL   ROUTINE.
 HUCKEL GUESS REQUIRES     32010 WORDS.

 SYMMETRIES FOR INITIAL GUESS ORBITALS FOLLOW.   BOTH SET(S).
    12 ORBITALS ARE OCCUPIED (    3 CORE ORBITALS).
     4=A'       5=A'       6=A'       7=A'       8=A''      9=A'      10=A'  
    11=A'      12=A''     13=A''     14=A'      15=A'      16=A''     17=A'  
    18=A'      19=A'      20=A'      21=A'      22=A'  
 ...... END OF INITIAL ORBITAL SELECTION ......
 STEP CPU TIME =     0.01 TOTAL CPU TIME =          0.0 (      0.0 MIN)
 TOTAL WALL CLOCK TIME=          0.1 SECONDS, CPU UTILIZATION IS    37.50%

                    ----------------------
                    AO INTEGRAL TECHNOLOGY
                    ----------------------
     S,P,L SHELL ROTATED AXIS INTEGRALS, REPROGRAMMED BY
        KAZUYA ISHIMURA (IMS) AND JOSE SIERRA (SYNSTAR).
     S,P,D,L SHELL ROTATED AXIS INTEGRALS PROGRAMMED BY
        KAZUYA ISHIMURA (INSTITUTE FOR MOLECULAR SCIENCE).
     S,P,D,F,G SHELL TO TOTAL QUARTET ANGULAR MOMENTUM SUM 5,
        ERIC PROGRAM BY GRAHAM FLETCHER (ELORET AND NASA ADVANCED
        SUPERCOMPUTING DIVISION, AMES RESEARCH CENTER).
     S,P,D,F,G,L SHELL GENERAL RYS QUADRATURE PROGRAMMED BY
        MICHEL DUPUIS (PACIFIC NORTHWEST NATIONAL LABORATORY).

          --------------------
          2 ELECTRON INTEGRALS
          --------------------

 DIRECT SCF METHOD SKIPS INTEGRAL STORAGE ON DISK.
 DIRECT TRANSFORMATION SKIPS AO INTEGRAL STORAGE ON DISK.
  ...... END OF TWO-ELECTRON INTEGRALS .....
 STEP CPU TIME =     0.00 TOTAL CPU TIME =          0.0 (      0.0 MIN)
 TOTAL WALL CLOCK TIME=          0.1 SECONDS, CPU UTILIZATION IS    30.00%

          --------------------------
             R-B3LYP SCF CALCULATION
          --------------------------

     NUCLEAR ENERGY =        70.9227239790
     MAXIT =  200     NPUNCH=    2
     EXTRAP=T  DAMP=F  SHIFT=F  RSTRCT=F  DIIS=T  DEM=F  SOSCF=F
         DENSITY MATRIX CONVERGENCE THRESHOLD=  2.00E-05
     COARSE -> FINE DFT GRID SWITCH THRESHOLD=  3.00E-04 (SWITCH IN $DFT)
                   HF -> DFT SWITCH THRESHOLD=  5.00E-03 (SWOFF IN $DFT)
     MEMORY REQUIRED FOR RHF ITERS=    668725 WORDS.

 DIRECT SCF CALCULATION, SCHWRZ=T   FDIFF=T,  DIRTHR=  0.00E+00 NITDIR=10
 SCHWARZ INEQUALITY OVERHEAD:      1653 INTEGRALS, T=        0.00

 DFT CODE IS SWITCHING FROM THE FINE GRID NRAD= 96,  NLEB=  590
                      TO THE COARSE GRID NRAD0= 24, NLEB0=  110

     EXCHANGE FUNCTIONAL   =B88&HFX   
     CORRELATION FUNCTIONAL=LYP88&VWN5
     DFT THRESHOLD         =.785E-08
     GRID CHANGE THRESHOLD =.300E-03
 FOR AN EULER-MACLAURIN QUADRATURE USING  96 RADIAL POINTS:
 SMALLEST GAUSSIAN PRIMITIVE EXPONENT=        0.1612777588 OF TYPE -S-
 ON ATOM NUMBER   4 HAS RADIAL NORMALIZATION=  1.000000
  LARGEST GAUSSIAN PRIMITIVE EXPONENT=     3047.5248800000 OF TYPE -S-
 ON ATOM NUMBER   1 HAS RADIAL NORMALIZATION=  1.000000
 DFT IS SWITCHED OFF, PERFORMING PURE SCF UNTIL SWOFF THRESHOLD IS REACHED.

                                                                                   NONZERO     BLOCKS
 ITER EX DEM     TOTAL ENERGY        E CHANGE  DENSITY CHANGE    DIIS ERROR      INTEGRALS    SKIPPED
          * * *   INITIATING DIIS PROCEDURE   * * *
   1  0  0     -116.7931709288  -116.7931709288   0.130139159   0.402717636         719013       1238
   2  1  0     -117.0485144063    -0.2553434775   0.083148285   0.074906006         718538       1442
   3  2  0     -117.0630179774    -0.0145035711   0.021184709   0.025881987         717710       1706
   4  3  0     -117.0662430384    -0.0032250610   0.007286299   0.005804676         715708       2063
   5  4  0     -117.0664375960    -0.0001945576   0.003299808   0.001964502         713430       2321
 CONVERGED TO SWOFF, SO DFT CALCULATION IS NOW SWITCHED ON.
          * * *   INITIATING DIIS PROCEDURE   * * *
   6  5  0     -117.8015528045    -0.7351152085   0.054141591   0.081974013         719026       1232
   7  6  0     -117.8126531992    -0.0111003947   0.030087849   0.026321781         717961       1653
   8  7  0     -117.8129922035    -0.0003390042   0.015821348   0.024986952         716387       1860
   9  8  0     -117.8146799451    -0.0016877416   0.004350949   0.003680490         715025       2084
  10  9  0     -117.8147203216    -0.0000403765   0.000847160   0.000633759         708189       2986
  11 10  0     -117.8147222976    -0.0000019760   0.000140927   0.000119025         703399       3563
 DFT CODE IS SWITCHING BACK TO THE FINE GRID
          * * *   INITIATING DIIS PROCEDURE   * * *
  12 11  0     -117.8156407136    -0.0009184160   0.001216526   0.000622859         719068       1212
  13 12  0     -117.8156439195    -0.0000032059   0.000137240   0.000107475         709157       2948
  14 13  0     -117.8156439366    -0.0000000170   0.000096060   0.000115499         697323       4153
  15 14  0     -117.8156439611    -0.0000000245   0.000046480   0.000038263         688347       4861
  16 15  0     -117.8156439658    -0.0000000047   0.000015002   0.000013534         677340       5887
  17 16  0     -117.8156439663    -0.0000000006   0.000001827   0.000001915         664312       7182

          -----------------
          DENSITY CONVERGED
          -----------------
     TIME TO FORM FOCK OPERATORS=       6.2 SECONDS (       0.4 SEC/ITER)
     FOCK TIME ON FIRST ITERATION=       0.1, LAST ITERATION=       0.9
     TIME TO SOLVE SCF EQUATIONS=       0.1 SECONDS (       0.0 SEC/ITER)

 FINAL R-B3LYP ENERGY IS     -117.8156439663 AFTER  17 ITERATIONS
 DFT EXCHANGE + CORRELATION ENERGY =       -14.8777060153
 TOTAL ELECTRON NUMBER             =        24.0000065141

          ------------
          EIGENVECTORS
          ------------

                      1          2          3          4          5
                  -10.1806   -10.1725   -10.1665    -0.7773    -0.6750
                     A'         A'         A'         A'         A'  
    1  C  1  S    0.028938  -0.001552   0.992280  -0.112828   0.138268
    2  C  1  S    0.000892  -0.000251   0.049335   0.215170  -0.269463
    3  C  1  X    0.000322   0.000013   0.000033  -0.072963   0.032040
    4  C  1  Y    0.000182   0.000099  -0.000008  -0.046136  -0.007038
    5  C  1  Z    0.000000   0.000000   0.000000   0.000000   0.000000
    6  C  1  S    0.004539   0.000542  -0.013377   0.164370  -0.223143
    7  C  1  X   -0.001400  -0.000602   0.000987  -0.007048  -0.008390
    8  C  1  Y   -0.001486  -0.000389   0.000498  -0.008566  -0.006798
    9  C  1  Z    0.000000   0.000000   0.000000   0.000000   0.000000
   10  C  1 XX   -0.000585   0.000118  -0.009269   0.005496  -0.003197
   11  C  1 YY   -0.000469   0.000046  -0.009419   0.001568  -0.002443
   12  C  1 ZZ   -0.000410  -0.000088  -0.009791  -0.012095   0.013711
   13  C  1 XY   -0.000028   0.000022   0.000091   0.004098   0.001977
   14  C  1 XZ    0.000000   0.000000   0.000000   0.000000   0.000000
   15  C  1 YZ    0.000000   0.000000   0.000000   0.000000   0.000000
   16  C  2  S    0.992200  -0.017416  -0.029435  -0.153609   0.034147
   17  C  2  S    0.049261  -0.001051  -0.001965   0.298399  -0.068467
   18  C  2  X   -0.000023   0.000003  -0.000373   0.049002  -0.112451
   19  C  2  Y   -0.000179   0.000204  -0.000156  -0.023091  -0.157090
   20  C  2  Z    0.000000   0.000000   0.000000   0.000000   0.000000
   21  C  2  S   -0.014629   0.004089   0.004892   0.196780  -0.052568
   22  C  2  X   -0.001140  -0.000806   0.001887  -0.010532  -0.018833
   23  C  2  Y    0.001046  -0.002523   0.001007  -0.000163  -0.039370
   24  C  2  Z    0.000000   0.000000   0.000000   0.000000   0.000000
   25  C  2 XX   -0.009109   0.000026   0.000004   0.002357  -0.009184
   26  C  2 YY   -0.009263  -0.000263   0.000011   0.003674   0.012945
   27  C  2 ZZ   -0.009568   0.000029   0.000155  -0.015738   0.003001
   28  C  2 XY    0.000120  -0.000089  -0.000045   0.001827  -0.002966
   29  C  2 XZ    0.000000   0.000000   0.000000   0.000000   0.000000
   30  C  2 YZ    0.000000   0.000000   0.000000   0.000000   0.000000
   31  C  3  S    0.017231   0.992738   0.001016  -0.119447  -0.146693
   32  C  3  S    0.000703   0.050133  -0.000059   0.224991   0.287041
   33  C  3  X    0.000065   0.000011  -0.000041   0.011818  -0.020050
   34  C  3  Y   -0.000306   0.000087  -0.000033   0.061456  -0.031554
   35  C  3  Z    0.000000   0.000000   0.000000   0.000000   0.000000
   36  C  3  S    0.003319  -0.017373  -0.000150   0.194981   0.263556
   37  C  3  X    0.000037   0.000024   0.000075   0.009238  -0.012309
   38  C  3  Y    0.001965  -0.001130   0.000173   0.010666  -0.018824
   39  C  3  Z    0.000000   0.000000   0.000000   0.000000   0.000000
   40  C  3 XX   -0.000270  -0.009188   0.000011  -0.002009   0.002233
   41  C  3 YY   -0.000652  -0.009215   0.000085   0.005811  -0.006952
   42  C  3 ZZ   -0.000188  -0.009146  -0.000039  -0.001884   0.002888
   43  C  3 XY    0.000021  -0.000006   0.000025   0.001827  -0.003070
   44  C  3 XZ    0.000000   0.000000   0.000000   0.000000   0.000000
   45  C  3 YZ    0.000000   0.000000   0.000000   0.000000   0.000000
   46  H  4  S   -0.000135  -0.000085  -0.000352   0.057585  -0.086881
   47  H  4  S   -0.000340   0.000227   0.002213   0.009837  -0.021559
   48  H  5  S   -0.000038  -0.000012  -0.000334   0.052775  -0.099883
   49  H  5  S    0.000227   0.000375   0.002193   0.009883  -0.031059
   50  H  6  S   -0.000362  -0.000130  -0.000052   0.077154  -0.021247
   51  H  6  S    0.001898  -0.000116  -0.000065   0.010031  -0.003514
   52  H  7  S   -0.000161  -0.000050  -0.000027   0.065199   0.104152
   53  H  7  S    0.000427   0.002705   0.000069   0.009139   0.030151
   54  H  8  S   -0.000161  -0.000050  -0.000027   0.065199   0.104152
   55  H  8  S    0.000427   0.002705   0.000069   0.009139   0.030151
   56  H  9  S   -0.000099  -0.000007   0.000013   0.062532   0.110585
   57  H  9  S   -0.000110   0.002697   0.000216   0.013468   0.031792

                      6          7          8          9         10
                   -0.5477    -0.4568    -0.4146    -0.4106    -0.3571
                     A'         A'         A'         A''        A'  
    1  C  1  S    0.090549  -0.016319   0.001145   0.000000   0.027872
    2  C  1  S   -0.182263   0.034459  -0.003594   0.000000  -0.058807
    3  C  1  X   -0.190775   0.048980   0.337413   0.000000   0.175382
    4  C  1  Y   -0.029473   0.319497  -0.088899   0.000000   0.213655
    5  C  1  Z    0.000000   0.000000   0.000000   0.065150   0.000000
    6  C  1  S   -0.171952   0.035139   0.025573   0.000000  -0.090865
    7  C  1  X   -0.067221   0.014526   0.119977   0.000000   0.073547
    8  C  1  Y   -0.014280   0.124356  -0.036467   0.000000   0.077940
    9  C  1  Z    0.000000   0.000000   0.000000   0.037137   0.000000
   10  C  1 XX    0.005117  -0.005428   0.006872   0.000000  -0.004365
   11  C  1 YY   -0.009441   0.009927   0.001245   0.000000   0.014134
   12  C  1 ZZ    0.008223  -0.001278  -0.000402   0.000000   0.001609
   13  C  1 XY    0.009815  -0.004292  -0.013066   0.000000  -0.001770
   14  C  1 XZ    0.000000   0.000000   0.000000  -0.004062   0.000000
   15  C  1 YZ    0.000000   0.000000   0.000000  -0.003439   0.000000
   16  C  2  S   -0.122088   0.033465  -0.000438   0.000000  -0.001430
   17  C  2  S    0.251049  -0.074118   0.002979   0.000000   0.001761
   18  C  2  X   -0.155034  -0.230558  -0.208495   0.000000  -0.232260
   19  C  2  Y    0.061696   0.161830  -0.215162   0.000000  -0.135796
   20  C  2  Z    0.000000   0.000000   0.000000   0.147676   0.000000
   21  C  2  S    0.228019  -0.047992   0.011603   0.000000   0.030972
   22  C  2  X   -0.067440  -0.057381  -0.071790   0.000000  -0.065865
   23  C  2  Y    0.016896   0.047300  -0.081227   0.000000  -0.026107
   24  C  2  Z    0.000000   0.000000   0.000000   0.071316   0.000000
   25  C  2 XX    0.000949   0.003994   0.003914   0.000000  -0.007632
   26  C  2 YY   -0.004211   0.006513   0.000086   0.000000   0.011112
   27  C  2 ZZ   -0.010453   0.001566  -0.000828   0.000000   0.000099
   28  C  2 XY   -0.010797   0.000967  -0.003666   0.000000  -0.015648
   29  C  2 XZ    0.000000   0.000000   0.000000   0.001744   0.000000
   30  C  2 YZ    0.000000   0.000000   0.000000  -0.010018   0.000000
   31  C  3  S    0.052518  -0.012629   0.006637   0.000000  -0.008895
   32  C  3  S   -0.104375   0.025878  -0.009254   0.000000   0.021558
   33  C  3  X   -0.039383  -0.201677  -0.180560   0.000000   0.348771
   34  C  3  Y    0.154813  -0.132483   0.228773   0.000000   0.116030
   35  C  3  Z    0.000000   0.000000   0.000000   0.431843   0.000000
   36  C  3  S   -0.118386   0.024146  -0.032569   0.000000   0.039130
   37  C  3  X   -0.015460  -0.101794  -0.081163   0.000000   0.160272
   38  C  3  Y    0.054209  -0.056265   0.101888   0.000000   0.062270
   39  C  3  Z    0.000000   0.000000   0.000000   0.199381   0.000000
   40  C  3 XX   -0.003767   0.011067   0.004133   0.000000  -0.022008
   41  C  3 YY    0.013421  -0.008153   0.006179   0.000000   0.007689
   42  C  3 ZZ   -0.007809  -0.001293  -0.014037   0.000000   0.010091
   43  C  3 XY    0.000258  -0.004299   0.002942   0.000000  -0.015096
   44  C  3 XZ    0.000000   0.000000   0.000000   0.017250   0.000000
   45  C  3 YZ    0.000000   0.000000   0.000000  -0.012759   0.000000
   46  H  4  S   -0.152211  -0.049808   0.204741   0.000000  -0.000351
   47  H  4  S   -0.082022  -0.032990   0.161129   0.000000   0.013684
   48  H  5  S   -0.100740   0.197638  -0.038300   0.000000   0.128162
   49  H  5  S   -0.049622   0.139474  -0.031430   0.000000   0.134449
   50  H  6  S    0.185055   0.124419   0.038688   0.000000   0.086517
   51  H  6  S    0.091867   0.109795   0.037335   0.000000   0.080452
   52  H  7  S   -0.083601  -0.002567  -0.109538  -0.220902   0.077654
   53  H  7  S   -0.043241  -0.001283  -0.080920  -0.176604   0.071996
   54  H  8  S   -0.083601  -0.002567  -0.109538   0.220902   0.077654
   55  H  8  S   -0.043241  -0.001283  -0.080920   0.176604   0.071996
   56  H  9  S   -0.041738   0.142267   0.068703   0.000000  -0.249663
   57  H  9  S   -0.018802   0.097471   0.062020   0.000000  -0.239277

                     11         12         13         14         15
                   -0.3411    -0.2421     0.0229     0.1134     0.1360
                     A'         A''        A''        A'         A'  
    1  C  1  S   -0.006614   0.000000   0.000000  -0.048160   0.000542
    2  C  1  S    0.014230   0.000000   0.000000   0.095470   0.023252
    3  C  1  X   -0.134559   0.000000   0.000000   0.051056   0.054955
    4  C  1  Y    0.217820   0.000000   0.000000   0.104459  -0.114148
    5  C  1  Z    0.000000   0.403655   0.389902   0.000000   0.000000
    6  C  1  S    0.018051   0.000000   0.000000   0.538390  -0.108776
    7  C  1  X   -0.032269   0.000000   0.000000   0.356664   0.193934
    8  C  1  Y    0.073578   0.000000   0.000000   0.334003  -0.245509
    9  C  1  Z    0.000000   0.299681   0.592831   0.000000   0.000000
   10  C  1 XX   -0.018962   0.000000   0.000000   0.011237  -0.000874
   11  C  1 YY    0.017937   0.000000   0.000000  -0.017471   0.010398
   12  C  1 ZZ   -0.000456   0.000000   0.000000  -0.000968  -0.002271
   13  C  1 XY    0.016463   0.000000   0.000000  -0.004968  -0.000302
   14  C  1 XZ    0.000000  -0.013297   0.021911   0.000000   0.000000
   15  C  1 YZ    0.000000  -0.006117   0.009335   0.000000   0.000000
   16  C  2  S   -0.006340   0.000000   0.000000  -0.052658   0.042311
   17  C  2  S    0.021032   0.000000   0.000000   0.085578  -0.017586
   18  C  2  X    0.154078   0.000000   0.000000  -0.165883   0.115569
   19  C  2  Y   -0.286246   0.000000   0.000000   0.100226  -0.043298
   20  C  2  Z    0.000000   0.373864  -0.421390   0.000000   0.000000
   21  C  2  S    0.001380   0.000000   0.000000   0.956544  -0.709997
   22  C  2  X    0.062466   0.000000   0.000000  -0.248869   0.324292
   23  C  2  Y   -0.076802   0.000000   0.000000   0.351834   0.114067
   24  C  2  Z    0.000000   0.271586  -0.565469   0.000000   0.000000
   25  C  2 XX   -0.017872   0.000000   0.000000  -0.004462   0.011807
   26  C  2 YY    0.011372   0.000000   0.000000   0.003325   0.010330
   27  C  2 ZZ   -0.000043   0.000000   0.000000  -0.004542  -0.002840
   28  C  2 XY    0.021444   0.000000   0.000000   0.015132  -0.014533
   29  C  2 XZ    0.000000   0.014129   0.023624   0.000000   0.000000
   30  C  2 YZ    0.000000   0.011760   0.008575   0.000000   0.000000
   31  C  3  S   -0.023168   0.000000   0.000000  -0.078579  -0.119071
   32  C  3  S    0.049356   0.000000   0.000000   0.095714   0.128164
   33  C  3  X   -0.075624   0.000000   0.000000  -0.147537   0.141205
   34  C  3  Y    0.287784   0.000000   0.000000  -0.097472  -0.151245
   35  C  3  Z    0.000000  -0.125731  -0.033998   0.000000   0.000000
   36  C  3  S    0.116095   0.000000   0.000000   1.288314   2.077143
   37  C  3  X   -0.046416   0.000000   0.000000  -0.443602   0.397316
   38  C  3  Y    0.152590   0.000000   0.000000  -0.318099  -0.340932
   39  C  3  Z    0.000000  -0.073829  -0.188958   0.000000   0.000000
   40  C  3 XX   -0.001686   0.000000   0.000000  -0.020904  -0.001640
   41  C  3 YY    0.006199   0.000000   0.000000   0.001793  -0.008684
   42  C  3 ZZ   -0.011259   0.000000   0.000000  -0.000070  -0.018610
   43  C  3 XY    0.009630   0.000000   0.000000  -0.010243   0.008284
   44  C  3 XZ    0.000000  -0.004425   0.008063   0.000000   0.000000
   45  C  3 YZ    0.000000   0.020761  -0.027887   0.000000   0.000000
   46  H  4  S   -0.170096   0.000000   0.000000   0.029808   0.008099
   47  H  4  S   -0.193418   0.000000   0.000000  -0.281458  -0.405880
   48  H  5  S    0.165813   0.000000   0.000000  -0.068692   0.010755
   49  H  5  S    0.166617   0.000000   0.000000  -0.831154   0.354890
   50  H  6  S   -0.208468   0.000000   0.000000  -0.041122   0.086818
   51  H  6  S   -0.217279   0.000000   0.000000  -1.016422   0.786232
   52  H  7  S   -0.085188   0.097811  -0.085280   0.019732  -0.048444
   53  H  7  S   -0.094027   0.105433  -0.360010  -0.341700  -1.245663
   54  H  8  S   -0.085188  -0.097811   0.085280   0.019732  -0.048444
   55  H  8  S   -0.094027  -0.105433   0.360010  -0.341700  -1.245663
   56  H  9  S    0.027938   0.000000   0.000000  -0.082078   0.035282
   57  H  9  S    0.009656   0.000000   0.000000  -1.212146  -0.238753

                     16         17         18         19         20
                    0.1570     0.1910     0.1977     0.2091     0.2935
                     A'         A'         A''        A'         A'  
    1  C  1  S   -0.117433   0.028350   0.000000   0.043498   0.032941
    2  C  1  S    0.165270  -0.029874   0.000000  -0.061243   0.002842
    3  C  1  X    0.231912   0.077748   0.000000   0.089987  -0.099333
    4  C  1  Y   -0.013992  -0.332083   0.000000  -0.085522   0.142749
    5  C  1  Z    0.000000   0.000000   0.133423   0.000000   0.000000
    6  C  1  S    1.926704  -0.728900   0.000000  -0.456441  -1.016470
    7  C  1  X    0.575470   0.456579   0.000000   0.491015   0.011898
    8  C  1  Y   -0.027807  -0.950607   0.000000  -0.389676   1.619552
    9  C  1  Z    0.000000   0.000000   0.223524   0.000000   0.000000
   10  C  1 XX   -0.013128  -0.007633   0.000000   0.004360  -0.010024
   11  C  1 YY   -0.001194   0.002262   0.000000   0.003827   0.004074
   12  C  1 ZZ   -0.007351   0.005305   0.000000   0.002437   0.007619
   13  C  1 XY    0.009560   0.004396   0.000000   0.012032   0.023095
   14  C  1 XZ    0.000000   0.000000   0.012154   0.000000   0.000000
   15  C  1 YZ    0.000000   0.000000   0.006671   0.000000   0.000000
   16  C  2  S    0.017380  -0.023529   0.000000  -0.117043  -0.072183
   17  C  2  S   -0.045872   0.016860   0.000000   0.177467   0.066951
   18  C  2  X    0.010202   0.029581   0.000000  -0.150704   0.184613
   19  C  2  Y   -0.118185  -0.110566   0.000000  -0.016757  -0.337018
   20  C  2  Z    0.000000   0.000000  -0.137803   0.000000   0.000000
   21  C  2  S   -0.081328   0.460885   0.000000   2.159495   2.071033
   22  C  2  X   -0.054715   0.223698   0.000000  -0.670469   1.206255
   23  C  2  Y   -0.499255   0.011519   0.000000   0.012019  -1.931395
   24  C  2  Z    0.000000   0.000000  -0.476476   0.000000   0.000000
   25  C  2 XX    0.012243   0.015378   0.000000   0.008061  -0.001263
   26  C  2 YY   -0.014444  -0.023865   0.000000  -0.010050   0.006254
   27  C  2 ZZ    0.003026   0.001971   0.000000  -0.007827  -0.005279
   28  C  2 XY   -0.003268  -0.000123   0.000000  -0.019927   0.013847
   29  C  2 XZ    0.000000   0.000000  -0.000610   0.000000   0.000000
   30  C  2 YZ    0.000000   0.000000  -0.012925   0.000000   0.000000
   31  C  3  S    0.050246   0.018124   0.000000   0.056968   0.055514
   32  C  3  S   -0.046949  -0.049444   0.000000  -0.066851   0.026470
   33  C  3  X    0.086253  -0.272819   0.000000   0.215315  -0.032342
   34  C  3  Y   -0.015574  -0.107286   0.000000  -0.160303  -0.114050
   35  C  3  Z    0.000000   0.000000   0.434804   0.000000   0.000000
   36  C  3  S   -0.958670  -0.014449   0.000000  -0.828471  -1.709667
   37  C  3  X    0.062804  -0.957057   0.000000   0.805234  -0.608949
   38  C  3  Y   -0.156370  -0.243753   0.000000  -0.833236  -1.755043
   39  C  3  Z    0.000000   0.000000   1.429874   0.000000   0.000000
   40  C  3 XX   -0.001742  -0.010882   0.000000   0.000018  -0.016144
   41  C  3 YY    0.005795   0.012095   0.000000   0.023024   0.034854
   42  C  3 ZZ    0.006389   0.001873   0.000000  -0.011387  -0.007142
   43  C  3 XY   -0.002976   0.005036   0.000000   0.003988   0.008790
   44  C  3 XZ    0.000000   0.000000  -0.011571   0.000000   0.000000
   45  C  3 YZ    0.000000   0.000000  -0.003719   0.000000   0.000000
   46  H  4  S   -0.098661  -0.019746   0.000000  -0.017598  -0.048312
   47  H  4  S   -1.685805  -0.825793   0.000000  -0.423018   1.178898
   48  H  5  S   -0.018952   0.042939   0.000000   0.042646   0.016770
   49  H  5  S   -0.809657   1.554439   0.000000   0.734896  -1.046048
   50  H  6  S    0.044482   0.012112   0.000000   0.001088  -0.017462
   51  H  6  S    0.478592   0.142125   0.000000  -1.480084   1.413707
   52  H  7  S    0.026160   0.018801   0.055519  -0.044843  -0.054258
   53  H  7  S    0.218952   0.440842   1.544298  -0.466290  -0.037711
   54  H  8  S    0.026160   0.018801  -0.055519  -0.044843  -0.054258
   55  H  8  S    0.218952   0.440842  -1.544298  -0.466290  -0.037711
   56  H  9  S   -0.023990  -0.069582   0.000000   0.036611  -0.087070
   57  H  9  S    0.410788  -1.230466   0.000000   1.114005  -0.405431

                     21         22         23         24         25
                    0.3468     0.5053     0.5350     0.5556     0.5918
                     A'         A'         A'         A''        A'  
    1  C  1  S   -0.073858  -0.003883   0.017856   0.000000   0.009385
    2  C  1  S    0.018900  -0.202512  -0.182488   0.000000  -0.330440
    3  C  1  X   -0.132127   0.487398  -0.027089   0.000000   0.338480
    4  C  1  Y    0.014979   0.221890   0.321811   0.000000   0.060622
    5  C  1  Z    0.000000   0.000000   0.000000  -0.642013   0.000000
    6  C  1  S    3.100509  -0.519785   0.174856   0.000000  -0.316570
    7  C  1  X   -2.671650  -0.309249   0.585136   0.000000  -0.393730
    8  C  1  Y   -1.072004  -0.307314  -0.320970   0.000000   0.299983
    9  C  1  Z    0.000000   0.000000   0.000000   0.629252   0.000000
   10  C  1 XX   -0.025656  -0.035606  -0.050543   0.000000  -0.021713
   11  C  1 YY    0.035054   0.002673   0.044056   0.000000  -0.035909
   12  C  1 ZZ   -0.011434  -0.004347  -0.007278   0.000000   0.010803
   13  C  1 XY   -0.012914  -0.032759   0.076091   0.000000  -0.011670
   14  C  1 XZ    0.000000   0.000000   0.000000   0.048151   0.000000
   15  C  1 YZ    0.000000   0.000000   0.000000   0.015813   0.000000
   16  C  2  S    0.050532  -0.019201  -0.033751   0.000000  -0.073829
   17  C  2  S    0.015122  -0.055360  -0.002527   0.000000  -0.270828
   18  C  2  X   -0.236133  -0.255051   0.056151   0.000000  -0.087125
   19  C  2  Y   -0.208780  -0.319745   0.136529   0.000000  -0.275286
   20  C  2  Z    0.000000   0.000000   0.000000  -0.644279   0.000000
   21  C  2  S   -2.578803   0.162222   0.018350   0.000000   0.343072
   22  C  2  X   -2.570996   0.902363   0.081470   0.000000   0.681967
   23  C  2  Y   -1.701568   0.974608   0.037636   0.000000   0.444321
   24  C  2  Z    0.000000   0.000000   0.000000   0.350496   0.000000
   25  C  2 XX    0.015611  -0.057346   0.018716   0.000000  -0.088623
   26  C  2 YY   -0.013053   0.045580  -0.089712   0.000000  -0.127461
   27  C  2 ZZ    0.007090   0.007060   0.023293   0.000000   0.073936
   28  C  2 XY    0.005806  -0.048509  -0.057258   0.000000  -0.010003
   29  C  2 XZ    0.000000   0.000000   0.000000  -0.047982   0.000000
   30  C  2 YZ    0.000000   0.000000   0.000000  -0.023000   0.000000
   31  C  3  S    0.013479   0.008080   0.007125   0.000000   0.022203
   32  C  3  S   -0.032644  -0.024757  -0.176172   0.000000  -0.216695
   33  C  3  X   -0.115692  -0.235319  -0.386305   0.000000   0.325053
   34  C  3  Y   -0.142138   0.282181  -0.544299   0.000000  -0.700910
   35  C  3  Z    0.000000   0.000000   0.000000  -0.308069   0.000000
   36  C  3  S   -0.492837   0.554375   0.205899   0.000000   0.261678
   37  C  3  X    0.625308   0.167091   0.587120   0.000000  -0.852726
   38  C  3  Y   -0.878883  -0.271195   0.754060   0.000000   0.905528
   39  C  3  Z    0.000000   0.000000   0.000000   0.763995   0.000000
   40  C  3 XX    0.005222   0.024045   0.058041   0.000000  -0.059763
   41  C  3 YY    0.018355   0.046425  -0.042038   0.000000   0.021270
   42  C  3 ZZ   -0.022309  -0.052859  -0.035339   0.000000   0.035140
   43  C  3 XY   -0.019595   0.062476   0.039753   0.000000   0.007377
   44  C  3 XZ    0.000000   0.000000   0.000000  -0.048567   0.000000
   45  C  3 YZ    0.000000   0.000000   0.000000   0.024381   0.000000
   46  H  4  S    0.030316   0.057783  -0.361667   0.000000   0.080178
   47  H  4  S    0.690098  -0.106052  -0.181501   0.000000   0.294588
   48  H  5  S    0.146234  -0.003337   0.223257   0.000000  -0.099311
   49  H  5  S    0.208768   0.042884  -0.195218   0.000000  -0.183897
   50  H  6  S   -0.016977   0.055510   0.196127   0.000000  -0.379843
   51  H  6  S   -0.409851   0.038989  -0.093517   0.000000   0.175355
   52  H  7  S   -0.051726  -0.199830  -0.075561   0.242468   0.113160
   53  H  7  S   -0.356937   0.068056   0.043726   0.224151   0.175444
   54  H  8  S   -0.051726  -0.199830  -0.075561  -0.242468   0.113160
   55  H  8  S   -0.356937   0.068056   0.043726  -0.224151   0.175444
   56  H  9  S   -0.032035   0.222061   0.322781   0.000000  -0.140723
   57  H  9  S    0.007136  -0.149084  -0.053009   0.000000  -0.178066

                     26         27         28         29         30
                    0.6209     0.6824     0.6827     0.7597     0.7839
                     A''        A'         A''        A'         A'  
    1  C  1  S    0.000000  -0.087762   0.000000  -0.024491  -0.015599
    2  C  1  S    0.000000  -0.478466   0.000000   0.053343   0.380372
    3  C  1  X    0.000000  -0.372188   0.000000  -0.176441  -0.251812
    4  C  1  Y    0.000000  -0.213443   0.000000   0.075139  -0.318336
    5  C  1  Z    0.745059   0.000000   0.416381   0.000000   0.000000
    6  C  1  S    0.000000   1.531428   0.000000  -1.362433  -0.915161
    7  C  1  X    0.000000   0.626988   0.000000   0.282313   0.500938
    8  C  1  Y    0.000000   0.293776   0.000000   0.051038   0.541924
    9  C  1  Z   -0.792432   0.000000  -0.897963   0.000000   0.000000
   10  C  1 XX    0.000000  -0.141821   0.000000  -0.111506  -0.060938
   11  C  1 YY    0.000000  -0.147997   0.000000   0.034726   0.070780
   12  C  1 ZZ    0.000000   0.096363   0.000000   0.036906   0.013349
   13  C  1 XY    0.000000  -0.010551   0.000000  -0.044616  -0.022396
   14  C  1 XZ    0.004784   0.000000   0.001124   0.000000   0.000000
   15  C  1 YZ   -0.016814   0.000000   0.025700   0.000000   0.000000
   16  C  2  S    0.000000   0.039283   0.000000   0.029861   0.030988
   17  C  2  S    0.000000  -0.512972   0.000000  -0.189185   0.664430
   18  C  2  X    0.000000  -0.357264   0.000000  -0.594794  -0.257101
   19  C  2  Y    0.000000  -0.166256   0.000000   0.181634  -0.760877
   20  C  2  Z   -0.168131   0.000000  -0.852747   0.000000   0.000000
   21  C  2  S    0.000000   0.666147   0.000000   0.450012  -1.449011
   22  C  2  X    0.000000  -0.139853   0.000000   2.366170   0.725654
   23  C  2  Y    0.000000   0.072372   0.000000  -0.587209   1.745484
   24  C  2  Z   -0.021751   0.000000   1.633370   0.000000   0.000000
   25  C  2 XX    0.000000   0.020913   0.000000   0.063298   0.173654
   26  C  2 YY    0.000000  -0.028037   0.000000   0.022437  -0.001527
   27  C  2 ZZ    0.000000  -0.023220   0.000000  -0.049189  -0.031238
   28  C  2 XY    0.000000   0.073444   0.000000  -0.056403   0.009080
   29  C  2 XZ    0.025941   0.000000  -0.001529   0.000000   0.000000
   30  C  2 YZ    0.004545   0.000000   0.047939   0.000000   0.000000
   31  C  3  S    0.000000  -0.009867   0.000000  -0.012592   0.055538
   32  C  3  S    0.000000   0.050353   0.000000   0.090301  -0.062763
   33  C  3  X    0.000000  -0.098427   0.000000   0.658266  -0.150469
   34  C  3  Y    0.000000   0.072640   0.000000   0.060911  -0.273739
   35  C  3  Z   -0.589246   0.000000   0.380936   0.000000   0.000000
   36  C  3  S    0.000000  -0.043878   0.000000  -0.240875   0.678985
   37  C  3  X    0.000000   0.416123   0.000000  -2.144293   0.321390
   38  C  3  Y    0.000000  -0.290633   0.000000  -0.118584   1.472574
   39  C  3  Z    1.323817   0.000000  -1.360972   0.000000   0.000000
   40  C  3 XX    0.000000   0.018719   0.000000  -0.030493  -0.033712
   41  C  3 YY    0.000000   0.010570   0.000000  -0.038367   0.093078
   42  C  3 ZZ    0.000000  -0.021293   0.000000   0.063555  -0.001703
   43  C  3 XY    0.000000  -0.036016   0.000000   0.075190  -0.009565
   44  C  3 XZ   -0.084202   0.000000   0.050735   0.000000   0.000000
   45  C  3 YZ    0.025801   0.000000  -0.046267   0.000000   0.000000
   46  H  4  S    0.000000  -0.534475   0.000000  -0.160973   0.002711
   47  H  4  S    0.000000  -0.267286   0.000000   0.276329   0.154370
   48  H  5  S    0.000000  -0.588009   0.000000   0.246983   0.050914
   49  H  5  S    0.000000  -0.154119   0.000000  -0.004659  -0.399710
   50  H  6  S    0.000000  -0.109152   0.000000   0.464587   0.321644
   51  H  6  S    0.000000  -0.142173   0.000000   0.895272  -0.154306
   52  H  7  S    0.278982  -0.078634  -0.211741  -0.013824   0.320319
   53  H  7  S    0.284865  -0.161527  -0.325940   0.427139   0.170051
   54  H  8  S   -0.278982  -0.078634   0.211741  -0.013824   0.320319
   55  H  8  S   -0.284865  -0.161527   0.325940   0.427139   0.170051
   56  H  9  S    0.000000  -0.018547   0.000000  -0.065085   0.179327
   57  H  9  S    0.000000   0.219790   0.000000  -1.054709   0.519248

                     31         32         33         34         35
                    0.8712     0.8838     0.8913     0.9247     0.9512
                     A'         A''        A'         A'         A'  
    1  C  1  S    0.004983   0.000000   0.013524   0.006127   0.024854
    2  C  1  S   -0.109980   0.000000   0.106843  -0.273004  -0.955478
    3  C  1  X    0.577616   0.000000  -0.125872  -0.044265  -0.477359
    4  C  1  Y   -0.863253   0.000000   0.245466   0.344597  -0.217395
    5  C  1  Z    0.000000  -0.084729   0.000000   0.000000   0.000000
    6  C  1  S    0.102324   0.000000  -1.114240  -0.027946   1.720313
    7  C  1  X   -1.372501   0.000000   0.641056   0.645915   0.891027
    8  C  1  Y    2.363347   0.000000  -0.036104  -1.166448   0.402587
    9  C  1  Z    0.000000   0.109705   0.000000   0.000000   0.000000
   10  C  1 XX   -0.079416   0.000000   0.024951  -0.066457  -0.079684
   11  C  1 YY    0.070110   0.000000  -0.014053   0.041346   0.042396
   12  C  1 ZZ    0.002074   0.000000  -0.002860  -0.003795  -0.100293
   13  C  1 XY    0.071209   0.000000  -0.063071   0.022666  -0.089850
   14  C  1 XZ    0.000000  -0.012852   0.000000   0.000000   0.000000
   15  C  1 YZ    0.000000   0.009076   0.000000   0.000000   0.000000
   16  C  2  S   -0.013542   0.000000  -0.023727   0.011706  -0.018537
   17  C  2  S   -0.137022   0.000000   0.563673  -0.551983  -0.454558
   18  C  2  X   -0.096016   0.000000  -0.671869   0.399840  -0.087137
   19  C  2  Y    0.358760   0.000000   0.354374  -0.288594  -0.018234
   20  C  2  Z    0.000000   0.003637   0.000000   0.000000   0.000000
   21  C  2  S    0.461860   0.000000  -0.632709   1.081160   1.107539
   22  C  2  X    0.567219   0.000000   1.964680  -0.557061   0.104816
   23  C  2  Y   -1.659859   0.000000  -0.555034   1.478569   0.017729
   24  C  2  Z    0.000000  -0.108010   0.000000   0.000000   0.000000
   25  C  2 XX    0.023326   0.000000  -0.015420  -0.020710  -0.027242
   26  C  2 YY   -0.047108   0.000000   0.050396  -0.009474  -0.055414
   27  C  2 ZZ    0.007072   0.000000   0.064664  -0.045552   0.021671
   28  C  2 XY   -0.047440   0.000000   0.128263  -0.063197   0.023066
   29  C  2 XZ    0.000000  -0.008981   0.000000   0.000000   0.000000
   30  C  2 YZ    0.000000   0.103475   0.000000   0.000000   0.000000
   31  C  3  S   -0.010777   0.000000   0.006103  -0.019916   0.021096
   32  C  3  S    0.112485   0.000000   0.083322  -0.001876  -0.668146
   33  C  3  X   -0.271459   0.000000  -0.476506  -0.405087  -0.033405
   34  C  3  Y    0.114934   0.000000  -0.006651   0.108707   0.272771
   35  C  3  Z    0.000000  -0.852578   0.000000   0.000000   0.000000
   36  C  3  S   -1.030786   0.000000  -0.313723   0.756342   1.232709
   37  C  3  X    0.374428   0.000000   0.275900   0.384491   0.177009
   38  C  3  Y   -0.577119   0.000000  -0.023456   0.134362  -0.559002
   39  C  3  Z    0.000000   1.351951   0.000000   0.000000   0.000000
   40  C  3 XX   -0.028443   0.000000  -0.098674  -0.170211   0.009862
   41  C  3 YY   -0.051179   0.000000   0.028289   0.019416  -0.088442
   42  C  3 ZZ    0.068918   0.000000   0.083792   0.144107  -0.012363
   43  C  3 XY   -0.040726   0.000000  -0.058683   0.006964  -0.016713
   44  C  3 XZ    0.000000   0.124864   0.000000   0.000000   0.000000
   45  C  3 YZ    0.000000  -0.165620   0.000000   0.000000   0.000000
   46  H  4  S   -0.436243   0.000000   0.137501  -0.040516   0.520547
   47  H  4  S    1.828686   0.000000  -0.453249  -0.610480  -1.186994
   48  H  5  S    0.412227   0.000000  -0.015929   0.097296   0.528810
   49  H  5  S   -1.760099   0.000000   0.260309   0.489349  -1.158752
   50  H  6  S    0.021138   0.000000  -0.511419   0.505587  -0.139183
   51  H  6  S    0.540215   0.000000   1.941637  -1.460284   0.031007
   52  H  7  S    0.119041  -0.699865   0.214555   0.227053   0.248674
   53  H  7  S   -0.283237   1.444841  -0.326297  -0.465246  -0.605126
   54  H  8  S    0.119041   0.699865   0.214555   0.227053   0.248674
   55  H  8  S   -0.283237  -1.444841  -0.326297  -0.465246  -0.605126
   56  H  9  S   -0.192539   0.000000  -0.463571  -0.810051   0.332256
   57  H  9  S    0.496298   0.000000   0.829346   0.980590  -0.471531

                     36         37         38         39         40
                    0.9669     1.1171     1.2453     1.3020     1.4347
                     A'         A'         A'         A'         A'' 
    1  C  1  S   -0.016369  -0.036060  -0.005582  -0.010022   0.000000
    2  C  1  S    0.370935  -1.503465  -0.294185  -0.278368   0.000000
    3  C  1  X    0.307211   0.208280  -0.016500  -0.021456   0.000000
    4  C  1  Y    0.305335   0.097301   0.162407  -0.132478   0.000000
    5  C  1  Z    0.000000   0.000000   0.000000   0.000000  -0.124638
    6  C  1  S   -0.612184   5.582028   0.989478   1.277885   0.000000
    7  C  1  X   -0.706055  -2.159922   1.151682   0.207869   0.000000
    8  C  1  Y   -0.618396  -0.302143  -2.874427  -0.333045   0.000000
    9  C  1  Z    0.000000   0.000000   0.000000   0.000000   0.064534
   10  C  1 XX    0.022135   0.005067  -0.117660   0.037742   0.000000
   11  C  1 YY   -0.031245  -0.188583   0.095172   0.049380   0.000000
   12  C  1 ZZ    0.077467  -0.007144  -0.015999  -0.115816   0.000000
   13  C  1 XY    0.079143   0.055749   0.129340   0.030480   0.000000
   14  C  1 XZ    0.000000   0.000000   0.000000   0.000000  -0.398030
   15  C  1 YZ    0.000000   0.000000   0.000000   0.000000   0.007080
   16  C  2  S   -0.014836   0.029153   0.011938   0.056929   0.000000
   17  C  2  S    0.088274   1.222438   0.530625   0.899134   0.000000
   18  C  2  X    0.083924   0.246552   0.163117  -0.004780   0.000000
   19  C  2  Y    0.092158   0.199643  -0.271647  -0.037257   0.000000
   20  C  2  Z    0.000000   0.000000   0.000000   0.000000  -0.004644
   21  C  2  S   -0.445898  -4.702310  -1.592579  -4.276888   0.000000
   22  C  2  X   -0.282080  -1.615810  -1.547622  -0.119273   0.000000
   23  C  2  Y   -0.376899  -2.011756   3.120538   2.173111   0.000000
   24  C  2  Z    0.000000   0.000000   0.000000   0.000000  -0.083066
   25  C  2 XX   -0.009774   0.000783  -0.053297   0.114189   0.000000
   26  C  2 YY   -0.036685   0.128602   0.074120   0.052151   0.000000
   27  C  2 ZZ    0.033428   0.011038   0.012800  -0.109218   0.000000
   28  C  2 XY   -0.018743  -0.111491   0.080535  -0.039719   0.000000
   29  C  2 XZ    0.000000   0.000000   0.000000   0.000000   0.152951
   30  C  2 YZ    0.000000   0.000000   0.000000   0.000000   0.534854
   31  C  3  S    0.038338   0.039142   0.002877  -0.138287   0.000000
   32  C  3  S   -1.070993   0.478405   0.346373  -1.905177   0.000000
   33  C  3  X    0.083828   0.081652   0.316069   0.068749   0.000000
   34  C  3  Y    0.415483   0.017381   0.231646  -0.096061   0.000000
   35  C  3  Z    0.000000   0.000000   0.000000   0.000000   0.118727
   36  C  3  S    2.160808  -1.582596   1.416682   6.759117   0.000000
   37  C  3  X   -0.301791  -0.212127  -0.284328  -0.069075   0.000000
   38  C  3  Y   -0.769186  -0.116929   0.836394   1.467684   0.000000
   39  C  3  Z    0.000000   0.000000   0.000000   0.000000   0.171234
   40  C  3 XX   -0.037164   0.024962   0.010658  -0.105947   0.000000
   41  C  3 YY   -0.124098   0.060480   0.141033   0.012109   0.000000
   42  C  3 ZZ    0.028200   0.012305  -0.091411  -0.151998   0.000000
   43  C  3 XY   -0.015436   0.044992  -0.109922  -0.006062   0.000000
   44  C  3 XZ    0.000000   0.000000   0.000000   0.000000  -0.369936
   45  C  3 YZ    0.000000   0.000000   0.000000   0.000000  -0.435496
   46  H  4  S   -0.375804   0.072507  -0.691892  -0.138640   0.000000
   47  H  4  S    0.731576  -0.123712  -1.022466  -0.417285   0.000000
   48  H  5  S   -0.346602  -0.277120   0.663327   0.027005   0.000000
   49  H  5  S    0.875484  -0.471388   0.789351  -0.305302   0.000000
   50  H  6  S   -0.014926   0.303063  -0.613921   0.020855   0.000000
   51  H  6  S    0.078550   0.458866  -0.909492  -0.039001   0.000000
   52  H  7  S    0.526916   0.172873   0.011987  -0.493799   0.167283
   53  H  7  S   -0.973620   0.284049   0.265425  -0.555055  -0.024088
   54  H  8  S    0.526916   0.172873   0.011987  -0.493799  -0.167283
   55  H  8  S   -0.973620   0.284049   0.265425  -0.555055   0.024088
   56  H  9  S    0.343927   0.080983   0.039696  -0.534150   0.000000
   57  H  9  S   -0.956465  -0.053201  -0.243097  -0.777679   0.000000

                     41         42         43         44         45
                    1.4851     1.7117     1.8125     1.9061     1.9568
                     A''        A''        A'         A'         A'  
    1  C  1  S    0.000000   0.000000   0.015362  -0.000200  -0.024552
    2  C  1  S    0.000000   0.000000  -0.121779   0.012273  -0.181752
    3  C  1  X    0.000000   0.000000   0.192157   0.194745   0.109850
    4  C  1  Y    0.000000   0.000000   0.183051  -0.100749   0.207284
    5  C  1  Z   -0.120740  -0.018958   0.000000   0.000000   0.000000
    6  C  1  S    0.000000   0.000000  -1.351705  -0.783118  -0.016769
    7  C  1  X    0.000000   0.000000   0.038859   0.084104  -0.036390
    8  C  1  Y    0.000000   0.000000   0.570756   0.537838   0.496401
    9  C  1  Z    0.034004   0.058016   0.000000   0.000000   0.000000
   10  C  1 XX    0.000000   0.000000  -0.083450   0.281534  -0.066419
   11  C  1 YY    0.000000   0.000000  -0.043313  -0.126829   0.571511
   12  C  1 ZZ    0.000000   0.000000   0.066036  -0.177077  -0.591039
   13  C  1 XY    0.000000   0.000000   0.196488  -0.312318   0.045854
   14  C  1 XZ   -0.288571  -0.526406   0.000000   0.000000   0.000000
   15  C  1 YZ   -0.476950   0.746688   0.000000   0.000000   0.000000
   16  C  2  S    0.000000   0.000000  -0.007561  -0.016674  -0.043840
   17  C  2  S    0.000000   0.000000  -0.032483  -0.594977  -0.440964
   18  C  2  X    0.000000   0.000000  -0.061148   0.057544  -0.142670
   19  C  2  Y    0.000000   0.000000  -0.029548   0.203551   0.139028
   20  C  2  Z   -0.146923  -0.038909   0.000000   0.000000   0.000000
   21  C  2  S    0.000000   0.000000   0.444943   1.542365   1.674107
   22  C  2  X    0.000000   0.000000   1.830295   0.956408   0.374830
   23  C  2  Y    0.000000   0.000000  -0.107281  -1.109657  -0.709851
   24  C  2  Z   -0.019817  -0.156428   0.000000   0.000000   0.000000
   25  C  2 XX    0.000000   0.000000   0.181595  -0.301457   0.457579
   26  C  2 YY    0.000000   0.000000  -0.337262   0.500528   0.079747
   27  C  2 ZZ    0.000000   0.000000   0.166653  -0.240255  -0.582988
   28  C  2 XY    0.000000   0.000000   0.282899   0.283236  -0.286093
   29  C  2 XZ    0.635608   0.131279   0.000000   0.000000   0.000000
   30  C  2 YZ   -0.200182  -0.033586   0.000000   0.000000   0.000000
   31  C  3  S    0.000000   0.000000  -0.015906   0.040631   0.027020
   32  C  3  S    0.000000   0.000000   0.033915  -0.148528   0.403044
   33  C  3  X    0.000000   0.000000   0.096715   0.000643  -0.020642
   34  C  3  Y    0.000000   0.000000   0.069466  -0.277914   0.007366
   35  C  3  Z   -0.041062  -0.068362   0.000000   0.000000   0.000000
   36  C  3  S    0.000000   0.000000   0.063497  -1.101181  -1.618781
   37  C  3  X    0.000000   0.000000  -0.639243  -0.317118  -0.388059
   38  C  3  Y    0.000000   0.000000  -0.010214  -0.179108  -0.477092
   39  C  3  Z    0.167476   0.249055   0.000000   0.000000   0.000000
   40  C  3 XX    0.000000   0.000000   0.262572  -0.174785   0.227070
   41  C  3 YY    0.000000   0.000000  -0.041065   0.493494   0.034335
   42  C  3 ZZ    0.000000   0.000000  -0.196142  -0.338797  -0.301258
   43  C  3 XY    0.000000   0.000000  -0.797651  -0.269097  -0.077150
   44  C  3 XZ    0.237718   0.250456   0.000000   0.000000   0.000000
   45  C  3 YZ    0.130170   0.302238   0.000000   0.000000   0.000000
   46  H  4  S    0.000000   0.000000   0.318526  -0.318811   0.016621
   47  H  4  S    0.000000   0.000000   0.167576   0.312249   0.095518
   48  H  5  S    0.000000   0.000000  -0.049271   0.135686  -0.559813
   49  H  5  S    0.000000   0.000000  -0.093257  -0.173326  -0.089024
   50  H  6  S    0.000000   0.000000   0.459996   0.410976  -0.446635
   51  H  6  S    0.000000   0.000000   0.620768   0.312846   0.181449
   52  H  7  S    0.013439   0.011265  -0.093238   0.205853   0.221307
   53  H  7  S    0.131144   0.100273   0.109447   0.007266   0.134131
   54  H  8  S   -0.013439  -0.011265  -0.093238   0.205853   0.221307
   55  H  8  S   -0.131144  -0.100273   0.109447   0.007266   0.134131
   56  H  9  S    0.000000   0.000000  -0.088641   0.231894  -0.080225
   57  H  9  S    0.000000   0.000000  -0.164406  -0.100454  -0.004648

                     46         47         48         49         50
                    2.1259     2.1444     2.1957     2.2205     2.2827
                     A''        A'         A'         A''        A'  
    1  C  1  S    0.000000  -0.037324  -0.026668   0.000000  -0.019158
    2  C  1  S    0.000000  -0.377681  -0.195702   0.000000  -0.101260
    3  C  1  X    0.000000   0.167113   0.015552   0.000000   0.105821
    4  C  1  Y    0.000000   0.052212  -0.007237   0.000000  -0.016246
    5  C  1  Z   -0.006767   0.000000   0.000000   0.029804   0.000000
    6  C  1  S    0.000000   1.041242   1.394599   0.000000   0.081580
    7  C  1  X    0.000000  -0.558113  -0.069290   0.000000   0.072735
    8  C  1  Y    0.000000  -0.364509  -0.073770   0.000000  -0.384936
    9  C  1  Z    0.104169   0.000000   0.000000   0.221037   0.000000
   10  C  1 XX    0.000000   0.507225   0.036827   0.000000   0.537388
   11  C  1 YY    0.000000  -0.247998   0.549396   0.000000  -0.344522
   12  C  1 ZZ    0.000000  -0.449789  -0.529084   0.000000  -0.264843
   13  C  1 XY    0.000000   0.391267  -0.540885   0.000000  -0.369996
   14  C  1 XZ    0.059274   0.000000   0.000000  -0.484303   0.000000
   15  C  1 YZ   -0.207530   0.000000   0.000000  -0.392497   0.000000
   16  C  2  S    0.000000  -0.021161   0.016589   0.000000  -0.024015
   17  C  2  S    0.000000  -0.278858   0.498502   0.000000   0.075291
   18  C  2  X    0.000000  -0.245011   0.186933   0.000000  -0.058047
   19  C  2  Y    0.000000  -0.190629  -0.112350   0.000000  -0.363474
   20  C  2  Z    0.029691   0.000000   0.000000  -0.117599   0.000000
   21  C  2  S    0.000000  -0.029460  -0.974736   0.000000   0.386533
   22  C  2  X    0.000000  -0.314325  -0.624290   0.000000   0.207567
   23  C  2  Y    0.000000  -0.129547  -0.337995   0.000000  -0.091417
   24  C  2  Z   -0.408949   0.000000   0.000000  -0.216549   0.000000
   25  C  2 XX    0.000000   0.237930  -0.224625   0.000000   0.002720
   26  C  2 YY    0.000000  -0.197754  -0.036652   0.000000  -0.021299
   27  C  2 ZZ    0.000000  -0.269197   0.345543   0.000000  -0.008759
   28  C  2 XY    0.000000   0.426713   0.038187   0.000000   0.151212
   29  C  2 XZ   -0.224641   0.000000   0.000000  -0.509139   0.000000
   30  C  2 YZ    0.698855   0.000000   0.000000   0.134314   0.000000
   31  C  3  S    0.000000   0.009057  -0.000947   0.000000   0.021101
   32  C  3  S    0.000000   0.203228   0.156632   0.000000   0.147096
   33  C  3  X    0.000000   0.098547   0.091522   0.000000  -0.045366
   34  C  3  Y    0.000000   0.034958   0.016335   0.000000  -0.025397
   35  C  3  Z    0.067707   0.000000   0.000000  -0.105687   0.000000
   36  C  3  S    0.000000  -0.485269  -0.211097   0.000000  -0.511423
   37  C  3  X    0.000000   0.258913   0.230265   0.000000  -0.554394
   38  C  3  Y    0.000000  -0.262345  -0.264532   0.000000  -0.387485
   39  C  3  Z    0.754651   0.000000   0.000000  -0.144423   0.000000
   40  C  3 XX    0.000000  -0.431581  -0.273283   0.000000   0.862614
   41  C  3 YY    0.000000  -0.067595  -0.306283   0.000000  -0.582805
   42  C  3 ZZ    0.000000   0.488227   0.550871   0.000000  -0.239676
   43  C  3 XY    0.000000   0.167761  -0.281369   0.000000   0.219262
   44  C  3 XZ    0.786435   0.000000   0.000000  -0.418529   0.000000
   45  C  3 YZ    0.154185   0.000000   0.000000   0.725567   0.000000
   46  H  4  S    0.000000  -0.053744  -0.493333   0.000000  -0.509909
   47  H  4  S    0.000000  -0.056829  -0.070980   0.000000   0.074217
   48  H  5  S    0.000000   0.115019  -0.417954   0.000000   0.296905
   49  H  5  S    0.000000  -0.045700  -0.024434   0.000000   0.061501
   50  H  6  S    0.000000   0.092553   0.187836   0.000000   0.134389
   51  H  6  S    0.000000  -0.190521  -0.019726   0.000000   0.004476
   52  H  7  S    0.407324  -0.129121  -0.264432  -0.455138   0.205903
   53  H  7  S    0.150367   0.000642   0.054183   0.106289  -0.001512
   54  H  8  S   -0.407324  -0.129121  -0.264432   0.455138   0.205903
   55  H  8  S   -0.150367   0.000642   0.054183  -0.106289  -0.001512
   56  H  9  S    0.000000   0.347070   0.299711   0.000000  -0.599985
   57  H  9  S    0.000000   0.030292  -0.062648   0.000000   0.001850

                     51         52         53         54         55
                    2.4871     2.5331     2.7529     2.8580     4.1183
                     A''        A'         A'         A'         A'  
    1  C  1  S    0.000000   0.048766  -0.054366   0.015327  -0.321136
    2  C  1  S    0.000000   0.078055   0.266354  -0.128007   2.187680
    3  C  1  X    0.000000   0.136310  -0.626659   0.229784  -0.074934
    4  C  1  Y    0.000000   0.080436  -0.329850   0.022361  -0.048406
    5  C  1  Z   -0.116464   0.000000   0.000000   0.000000   0.000000
    6  C  1  S    0.000000  -1.574127   1.799044  -0.307981   0.835658
    7  C  1  X    0.000000   0.490684  -1.101767  -0.095366   0.083862
    8  C  1  Y    0.000000   0.329103  -0.334405   0.460260   0.189153
    9  C  1  Z   -0.182494   0.000000   0.000000   0.000000   0.000000
   10  C  1 XX    0.000000  -0.010578   0.587038  -0.712744  -1.237648
   11  C  1 YY    0.000000  -0.369968  -0.092910   0.593095  -1.278664
   12  C  1 ZZ    0.000000   0.487506  -0.443900   0.130667  -1.240249
   13  C  1 XY    0.000000  -0.279301   0.819638   0.290390   0.023832
   14  C  1 XZ    0.639393   0.000000   0.000000   0.000000   0.000000
   15  C  1 YZ    0.249567   0.000000   0.000000   0.000000   0.000000
   16  C  2  S    0.000000  -0.093847   0.033051  -0.062777  -0.308836
   17  C  2  S    0.000000  -0.102647  -0.267244   0.144559   2.002444
   18  C  2  X    0.000000   0.110770  -0.631797   0.124618   0.090222
   19  C  2  Y    0.000000  -0.172363  -0.402380  -0.040129   0.057368
   20  C  2  Z    0.047265   0.000000   0.000000   0.000000   0.000000
   21  C  2  S    0.000000   2.740344  -1.261645   1.260065   0.871980
   22  C  2  X    0.000000   0.561783  -0.959697   0.134472   0.021932
   23  C  2  Y    0.000000  -0.610015  -1.042672  -0.734654  -0.135083
   24  C  2  Z    0.202429   0.000000   0.000000   0.000000   0.000000
   25  C  2 XX    0.000000   0.245422  -0.941257  -0.485869  -1.146276
   26  C  2 YY    0.000000   0.502696   0.582345   0.652495  -1.147626
   27  C  2 ZZ    0.000000  -0.825066   0.317548  -0.351340  -1.196079
   28  C  2 XY    0.000000  -0.217790  -0.672564   0.812856   0.036729
   29  C  2 XZ    0.639957   0.000000   0.000000   0.000000   0.000000
   30  C  2 YZ    0.547948   0.000000   0.000000   0.000000   0.000000
   31  C  3  S    0.000000   0.056134   0.025832   0.051477  -0.156262
   32  C  3  S    0.000000   0.067372  -0.022726  -0.172826   0.931339
   33  C  3  X    0.000000  -0.044300  -0.025063  -0.023311  -0.003022
   34  C  3  Y    0.000000  -0.272065  -0.161419  -0.326358   0.081154
   35  C  3  Z   -0.038006   0.000000   0.000000   0.000000   0.000000
   36  C  3  S    0.000000  -1.548545  -0.661431  -1.016170   0.456211
   37  C  3  X    0.000000   0.007975  -0.071341   0.015785  -0.018165
   38  C  3  Y    0.000000  -0.861397  -0.436989  -0.539516  -0.178491
   39  C  3  Z   -0.158502   0.000000   0.000000   0.000000   0.000000
   40  C  3 XX    0.000000   0.035813   0.167683   0.445824  -0.612428
   41  C  3 YY    0.000000  -0.550620  -0.291486  -0.524429  -0.454174
   42  C  3 ZZ    0.000000   0.625742   0.149434   0.237725  -0.623192
   43  C  3 XY    0.000000  -0.464822  -0.254228   0.188978  -0.004427
   44  C  3 XZ   -0.338928   0.000000   0.000000   0.000000   0.000000
   45  C  3 YZ    0.592370   0.000000   0.000000   0.000000   0.000000
   46  H  4  S    0.000000   0.034688   0.113112   0.351844   0.151320
   47  H  4  S    0.000000   0.102725   0.131285   0.077362  -0.248204
   48  H  5  S    0.000000   0.326144  -0.055146  -0.349621   0.122663
   49  H  5  S    0.000000  -0.017413   0.050088  -0.006509  -0.353382
   50  H  6  S    0.000000  -0.404952   0.007099   0.361242   0.137181
   51  H  6  S    0.000000   0.225339   0.031940  -0.096518  -0.213625
   52  H  7  S   -0.335919  -0.181541  -0.022441   0.004805   0.069906
   53  H  7  S    0.084366   0.057676   0.004355  -0.014075  -0.206666
   54  H  8  S    0.335919  -0.181541  -0.022441   0.004805   0.069906
   55  H  8  S   -0.084366   0.057676   0.004355  -0.014075  -0.206666
   56  H  9  S    0.000000   0.229190  -0.011491  -0.141381   0.051968
   57  H  9  S    0.000000   0.011842  -0.108744   0.130697  -0.152330

                     56         57
                    4.2011     4.4021
                     A'         A'  
    1  C  1  S    0.301962   0.174451
    2  C  1  S   -1.783974  -1.035300
    3  C  1  X   -0.173499  -0.252899
    4  C  1  Y   -0.114086  -0.105714
    5  C  1  Z    0.000000   0.000000
    6  C  1  S   -1.652104  -1.210540
    7  C  1  X    0.129862   0.097788
    8  C  1  Y    0.212806   0.066609
    9  C  1  Z    0.000000   0.000000
   10  C  1 XX    1.310988   0.981324
   11  C  1 YY    1.175387   0.717313
   12  C  1 ZZ    1.146331   0.611059
   13  C  1 XY    0.125094   0.128346
   14  C  1 XZ    0.000000   0.000000
   15  C  1 YZ    0.000000   0.000000
   16  C  2  S   -0.156646  -0.331183
   17  C  2  S    0.826675   2.014003
   18  C  2  X   -0.229863  -0.205080
   19  C  2  Y   -0.168414   0.037897
   20  C  2  Z    0.000000   0.000000
   21  C  2  S    0.797259   2.087905
   22  C  2  X    0.316162   0.070097
   23  C  2  Y    0.174483  -0.186509
   24  C  2  Z    0.000000   0.000000
   25  C  2 XX   -0.818123  -1.467785
   26  C  2 YY   -0.448693  -1.597072
   27  C  2 ZZ   -0.568407  -1.224004
   28  C  2 XY   -0.095018  -0.204819
   29  C  2 XZ    0.000000   0.000000
   30  C  2 YZ    0.000000   0.000000
   31  C  3  S   -0.360666   0.303625
   32  C  3  S    2.049877  -1.772645
   33  C  3  X   -0.017160   0.001380
   34  C  3  Y   -0.013706   0.164166
   35  C  3  Z    0.000000   0.000000
   36  C  3  S    1.741822  -2.071693
   37  C  3  X   -0.003907   0.015118
   38  C  3  Y   -0.034010  -0.190967
   39  C  3  Z    0.000000   0.000000
   40  C  3 XX   -1.350944   1.141779
   41  C  3 YY   -1.325711   1.459164
   42  C  3 ZZ   -1.396732   1.110071
   43  C  3 XY   -0.004018   0.017743
   44  C  3 XZ    0.000000   0.000000
   45  C  3 YZ    0.000000   0.000000
   46  H  4  S   -0.064811  -0.076404
   47  H  4  S    0.333504   0.231629
   48  H  5  S   -0.100463  -0.049427
   49  H  5  S    0.219877   0.213991
   50  H  6  S    0.080220   0.076941
   51  H  6  S   -0.098960  -0.331598
   52  H  7  S    0.096464  -0.028979
   53  H  7  S   -0.395392   0.288619
   54  H  8  S    0.096464  -0.028979
   55  H  8  S   -0.395392   0.288619
   56  H  9  S    0.076590  -0.038121
   57  H  9  S   -0.341328   0.354294
 ...... END OF RHF CALCULATION ......
 STEP CPU TIME =     6.38 TOTAL CPU TIME =          6.4 (      0.1 MIN)
 TOTAL WALL CLOCK TIME=          7.0 SECONDS, CPU UTILIZATION IS    91.18%

     ---------------------------------------------------------------------
     PROPERTIES FOR THE B3LYP    DFT FUNCTIONAL (RHF  TYPE) DENSITY MATRIX
     ---------------------------------------------------------------------

          -----------------
          ENERGY COMPONENTS
          -----------------

         WAVEFUNCTION NORMALIZATION =       1.0000000000

                ONE ELECTRON ENERGY =    -297.3128847762
                TWO ELECTRON ENERGY =     108.5745168309
           NUCLEAR REPULSION ENERGY =      70.9227239790
                                      ------------------
                       TOTAL ENERGY =    -117.8156439663

 ELECTRON-ELECTRON POTENTIAL ENERGY =     108.5745168309
  NUCLEUS-ELECTRON POTENTIAL ENERGY =    -414.0585338552
   NUCLEUS-NUCLEUS POTENTIAL ENERGY =      70.9227239790
                                      ------------------
             TOTAL POTENTIAL ENERGY =    -234.5612930453
               TOTAL KINETIC ENERGY =     116.7456490789
                 VIRIAL RATIO (V/T) =       2.0091651800

          ---------------------------------------
          MULLIKEN AND LOWDIN POPULATION ANALYSES
          ---------------------------------------

     ATOMIC MULLIKEN POPULATION IN EACH MOLECULAR ORBITAL

                      1          2          3          4          5

                  2.000000   2.000000   2.000000   2.000000   2.000000

    1             0.002865   0.000034   1.996303   0.479675   0.578978
    2             1.995319   0.001625   0.002857   0.758478   0.272400
    3             0.001438   1.996743   0.000007   0.548525   0.703974
    4            -0.000013   0.000001   0.000419   0.029444   0.061277
    5             0.000009  -0.000000   0.000414   0.025158   0.088222
    6             0.000358  -0.000002  -0.000002   0.049107   0.003331
    7             0.000014   0.000535   0.000000   0.036334   0.092652
    8             0.000014   0.000535   0.000000   0.036334   0.092652
    9            -0.000004   0.000530   0.000000   0.036945   0.106514

                      6          7          8          9         10

                  2.000000   2.000000   2.000000   2.000000   2.000000

    1             0.474830   0.581805   0.576048   0.034312   0.310732
    2             0.581977   0.400847   0.397949   0.157773   0.260707
    3             0.247916   0.362629   0.453684   1.031701   0.664405
    4             0.199801   0.019247   0.324208   0.000000   0.001235
    5             0.083616   0.321261   0.010122   0.000000   0.136695
    6             0.277863   0.143901   0.013575   0.000000   0.054671
    7             0.060343   0.000074   0.092414   0.388107   0.043292
    8             0.060343   0.000074   0.092414   0.388107   0.043292
    9             0.013311   0.170161   0.039587   0.000000   0.484971

                     11         12

                  2.000000   2.000000

    1             0.282532   1.005118
    2             0.417135   0.820171
    3             0.411136   0.060895
[...]
               TOTAL  0.04663066 13.78086940 14.95883529  0.16172285  0.06320743

                            6           7           8           9          10
       FREQUENCY:         0.43       13.78      415.42      590.08      925.20  
        SYMMETRY:         A''         A''         A'          A''         A'  
    REDUCED MASS:      4.67268     1.44093     1.98818     1.30935     2.03273
    IR INTENSITY:      0.00000     0.00006     0.01005     0.27192     0.01104

  1   C            X  0.08184089  0.00004309  0.02282910 -0.00000155 -0.02601352
                   Y  0.08154014  0.00003541  0.11543011 -0.00000305 -0.11016257
                   Z  0.10138405 -0.03748668  0.00000248  0.04018761 -0.00001444
  2   C            X  0.08255306  0.00003067  0.11401860 -0.00000473  0.01661507
                   Y  0.08016839  0.00005938 -0.07694303  0.00000020 -0.09777704
                   Z  0.10333281  0.13492508 -0.00000427 -0.13814460  0.00000214
  3   C            X  0.08428692  0.00000053 -0.09151950 -0.00000025  0.01346944
                   Y  0.07993830  0.00006334 -0.06096606 -0.00000171  0.15178564
                   Z  0.10155108 -0.08794365  0.00000026  0.01584177  0.00000422
  4   H            X  0.08247988  0.00003186  0.16977632 -0.00000638  0.18178546
                   Y  0.08262367  0.00001643  0.36612569 -0.00001127  0.25213097
                   Z  0.09826946 -0.36221217  0.00000093 -0.33706874  0.00004464
  5   H            X  0.08058354  0.00006502 -0.26100271  0.00000627 -0.49007060
                   Y  0.08163418  0.00003377  0.13847412 -0.00000386 -0.07815026
                   Z  0.10281621  0.13876571  0.00000833  0.59142764  0.00007517
  6   H            X  0.08184235  0.00004297  0.10417869 -0.00000523  0.09810704
                   Y  0.07911889  0.00007762 -0.08637647 -0.00000049  0.01353199
                   Z  0.10643849  0.46120046 -0.00000042  0.31365676 -0.00000771
  7   H            X  0.08263946 -0.20679896 -0.20010579 -0.05952122  0.06441339
                   Y  0.08179499  0.15834618 -0.16479007 -0.23905072  0.19401303
                   Z  0.09971577 -0.27839987 -0.00182858  0.11199863  0.00517990
  8   H            X  0.08699539  0.20678125 -0.20007783  0.05952669  0.06440784
                   Y  0.07912477 -0.15823773 -0.16477734  0.23905265  0.19398296
                   Z  0.09972011 -0.27839982  0.00182181  0.11199839 -0.00518527
  9   H            X  0.08459307 -0.00000485 -0.15252131  0.00000138  0.03297434
                   Y  0.07871307  0.00008473  0.17883034 -0.00000823  0.09310876
                   Z  0.10376754  0.11333367  0.00002148  0.18585189 -0.00001151

 TRANS. SAYVETZ    X  3.48720990  0.00100958 -0.00003785 -0.00007689  0.00009085
                   Y  3.38655105  0.00222117 -0.00016832 -0.00007686  0.00000179
                   Z  4.29072187 -0.09338476  0.00000537  0.00013372 -0.00000099
               TOTAL  6.48379943  0.09341663  0.00017260  0.00017234  0.00009087

   ROT. SAYVETZ    X  0.03091791  5.59007373 -0.00001278 -0.00804273  0.00000345
                   Y  0.05026057  3.72002777  0.00001523  0.00412012 -0.00000313
                   Z  0.13706655 -0.00238836  0.00345093  0.00001221  0.00251476
               TOTAL  0.14922895  6.71472536  0.00345099  0.00903665  0.00251476

                           11          12          13          14          15
       FREQUENCY:       931.97      980.93     1023.36     1066.23     1184.44  
        SYMMETRY:         A''         A'          A''         A''         A'  
    REDUCED MASS:      1.33182     1.32996     1.05263     1.47986     1.73405
    IR INTENSITY:      0.73007     0.01383     0.40202     0.00282     0.14088

  1   C            X  0.00000241 -0.06335922 -0.00000130 -0.00000073  0.01438860
                   Y  0.00001173  0.00478361 -0.00000195 -0.00000147 -0.07676712
                   Z -0.14304934  0.00000112 -0.01079887 -0.02243010 -0.00000002
  2   C            X -0.00000099  0.01765558 -0.00000059 -0.00000078 -0.06896532
                   Y  0.00001015 -0.05370768 -0.00000304 -0.00000268  0.12033730
                   Z  0.03608712 -0.00000098 -0.02688295  0.12358817  0.00000045
  3   C            X -0.00000065  0.09969284  0.00000120  0.00000034  0.08988783
                   Y -0.00001524  0.06973458  0.00000327  0.00000245 -0.06843133
                   Z  0.01913458  0.00000161 -0.05507099 -0.11506893 -0.00000079
  4   H            X -0.00001923 -0.20364375 -0.00000159 -0.00000120  0.17545502
                   Y -0.00002600 -0.23208106 -0.00000227 -0.00000216  0.21101450
                   Z  0.54499589 -0.00001196  0.54034426 -0.05099875 -0.00000008
  5   H            X  0.00005129  0.15643354 -0.00000447 -0.00000339 -0.31656513
                   Y  0.00000841 -0.01667133 -0.00000201 -0.00000155 -0.04733230
                   Z  0.64140782  0.00000216 -0.32245044  0.05514742 -0.00000058
  6   H            X -0.00000997 -0.14020417 -0.00000262 -0.00000252  0.07857066
                   Y -0.00000222 -0.29145265 -0.00000619 -0.00000534  0.34242050
                   Z -0.05889365 -0.00000483  0.66399080 -0.34854121  0.00000150
  7   H            X  0.00449182 -0.20918113 -0.01009577  0.00123369 -0.17950888
                   Y  0.08497218 -0.15579493 -0.21369872 -0.46123934 -0.22953044
                   Z -0.02296425 -0.03908905  0.05974812  0.13491733 -0.05297937
  8   H            X -0.00450815 -0.20918310  0.01009303 -0.00123367 -0.17950968
                   Y -0.08501478 -0.15580569  0.21370196  0.46124424 -0.22952224
                   Z -0.02296266  0.03908706  0.05974897  0.13491763  0.05298240
  9   H            X -0.00000367 -0.03704373  0.00000005  0.00000021  0.00109216
                   Y -0.00000526  0.60389930  0.00000807  0.00000332  0.24892964
                   Z -0.03582668 -0.00000452  0.10306222  0.24021616  0.00000023

 TRANS. SAYVETZ    X  0.00001132  0.00001797 -0.00001985 -0.00002098 -0.00002266
                   Y  0.00001150 -0.00012025 -0.00001976 -0.00002114 -0.00003802
                   Z  0.00000785 -0.00000029  0.00005242  0.00002454 -0.00000017
               TOTAL  0.00001795  0.00012158  0.00005944  0.00003859  0.00004426

   ROT. SAYVETZ    X  0.00323613  0.00000132 -0.00026927 -0.00031248  0.00000029
                   Y -0.00061109 -0.00000136  0.00246397 -0.00051371 -0.00000098
                   Z -0.00000185  0.00032713  0.00000301  0.00000335 -0.00009100
               TOTAL  0.00329332  0.00032714  0.00247864  0.00060129  0.00009100

                           16          17          18          19          20
       FREQUENCY:      1343.85     1433.49     1472.32     1520.75     1522.66  
        SYMMETRY:         A'          A'          A'          A'          A'' 
    REDUCED MASS:      1.24532     1.18337     1.22236     1.05063     1.04406
    IR INTENSITY:      0.01495     0.02214     0.04174     0.10934     0.12222

  1   C            X -0.09698873  0.00341882 -0.03336526 -0.01332264 -0.00000060
                   Y  0.02814324 -0.00170221  0.00245320 -0.01419363 -0.00000091
                   Z -0.00000002  0.00000000 -0.00000001 -0.00000014  0.00190834
  2   C            X  0.06468556 -0.03170524 -0.06766664 -0.00767854 -0.00000188
                   Y -0.04921031 -0.01573207 -0.08193711  0.01759322 -0.00000004
                   Z  0.00000018 -0.00000003  0.00000010  0.00000115 -0.01632694
  3   C            X  0.01047948  0.00301822  0.02220673 -0.05137225 -0.00000317
                   Y -0.02086292 -0.11053874  0.05533496 -0.01787758 -0.00000076
                   Z -0.00000027  0.00000000  0.00000009  0.00000350 -0.05373434
  4   H            X -0.27641604  0.12046116  0.25763070  0.03270334  0.00000228
                   Y -0.26683246  0.17737789  0.46093391  0.06258259  0.00000377
                   Z -0.00000040 -0.00000000 -0.00000016  0.00000021 -0.00461259
  5   H            X -0.01614712  0.19914482  0.62571732  0.03702355  0.00000277
                   Y  0.01150332 -0.00813415 -0.03044542 -0.01759668 -0.00000120
                   Z -0.00000012  0.00000005 -0.00000002 -0.00000064  0.00992870
  6   H            X  0.51059641 -0.02138435  0.13618157 -0.00447914  0.00000136
                   Y  0.60576633  0.00825049  0.22170070  0.02379774  0.00000503
                   Z  0.00000134 -0.00000004  0.00000049  0.00000008  0.00395352
  7   H            X  0.02409421  0.06405260 -0.06869805  0.46992997  0.40332341
                   Y  0.04222744  0.45315614 -0.13585295 -0.16847246  0.25151726
                   Z -0.02327901 -0.24190967  0.04986165  0.33744234  0.04828874
  8   H            X  0.02409459  0.06405201 -0.06869550  0.46998421 -0.40326023
                   Y  0.04223251  0.45315558 -0.13584981 -0.16843720 -0.25154195
                   Z  0.02328063  0.24190974 -0.04986145 -0.33744848  0.04824220
  9   H            X -0.00635151 -0.12550201  0.05644249 -0.14339684 -0.00000939
                   Y  0.06436196  0.44003314 -0.09292154  0.44054459  0.00003026
                   Z -0.00000143  0.00000059 -0.00000275 -0.00004787  0.70570630

 TRANS. SAYVETZ    X  0.00001975 -0.00004020  0.00002078  0.00002727 -0.00000716
                   Y  0.00000598  0.00008689  0.00002767  0.00003186 -0.00000720
                   Z -0.00000020  0.00000036 -0.00000015 -0.00000058  0.00002153
               TOTAL  0.00002063  0.00009574  0.00003460  0.00004194  0.00002381

   ROT. SAYVETZ    X  0.00000014 -0.00000098  0.00000056  0.00000132 -0.00069748
                   Y -0.00000027  0.00000037 -0.00000026 -0.00000064 -0.00140406
                   Z -0.00134983  0.00312636 -0.00109128  0.00334423  0.00000164
               TOTAL  0.00134983  0.00312636  0.00109128  0.00334423  0.00156776

                           21          22          23          24          25
       FREQUENCY:      1730.76     3042.82     3093.61     3119.89     3147.35  
        SYMMETRY:         A'          A'          A''         A'          A'  
    REDUCED MASS:      4.34297     1.03786     1.10093     1.09861     1.06397
    IR INTENSITY:      0.18922     0.52847     0.52932     0.35114     0.65706

  1   C            X -0.15410099  0.00089060  0.00000005  0.00269466 -0.04868860
                   Y -0.08627854  0.00029493  0.00000001  0.00263409 -0.02016898
                   Z -0.00000002  0.00000000  0.00042085  0.00000000 -0.00000000
  2   C            X  0.15690877 -0.00066415  0.00000001  0.01843080 -0.03122950
                   Y  0.11604067 -0.00042351 -0.00000001 -0.01085599  0.02644753
                   Z  0.00000006  0.00000000 -0.00024338 -0.00000000  0.00000000
  3   C            X -0.01540822 -0.00975316  0.00000009 -0.08392404 -0.01866427
                   Y -0.01866019  0.05036186 -0.00000001  0.00168166  0.00058498
                   Z -0.00000081 -0.00000002 -0.08771118 -0.00000005 -0.00000037
  4   H            X  0.01989486 -0.01324370 -0.00000221 -0.03419796  0.51109185
                   Y  0.24844418  0.00966347  0.00000142  0.02326805 -0.31346929
                   Z -0.00000121  0.00000000 -0.00279338  0.00000000 -0.00000013
  5   H            X  0.18072881  0.00122557 -0.00000016 -0.00288819  0.02643464
                   Y -0.13016689 -0.01389975 -0.00000328 -0.06104980  0.53066991
                   Z  0.00000038 -0.00000000  0.00092683 -0.00000001  0.00000005
  6   H            X -0.02053007  0.00814754 -0.00000015 -0.21558622  0.41669827
                   Y -0.18643823 -0.00378335  0.00000011  0.14352360 -0.28253006
                   Z  0.00000251 -0.00000001 -0.00437441 -0.00000001  0.00000019
  7   H            X -0.01678665  0.26227673 -0.29121728  0.09743465  0.02442330
                   Y  0.02102393 -0.25040199  0.28182249 -0.11103926 -0.02881728
                   Z -0.01933504 -0.51163064  0.53465364 -0.22355410 -0.05531498
  8   H            X -0.01679465  0.26227686  0.29121694  0.09743502  0.02442506
                   Y  0.02102680 -0.25040210 -0.28182212 -0.11103961 -0.02881908
                   Z  0.01933839  0.51163086  0.53465286  0.22355470  0.05531921
  9   H            X  0.00362695 -0.40724990 -0.00000071  0.80552952  0.17072766
                   Y -0.10619997 -0.08931104 -0.00000014  0.19422168  0.04127199
                   Z  0.00000373 -0.00000001 -0.02079151 -0.00000001 -0.00000004

 TRANS. SAYVETZ    X  0.00010883  0.00000025 -0.00000180 -0.00000511 -0.00000266
                   Y -0.00012234 -0.00001577 -0.00000170  0.00001123  0.00002943
                   Z -0.00000042  0.00000001  0.00002532  0.00000001 -0.00000004
               TOTAL  0.00016374  0.00001577  0.00002544  0.00001233  0.00002955

   ROT. SAYVETZ    X  0.00000128  0.00000002 -0.00044182 -0.00000009  0.00000011
                   Y -0.00000133 -0.00000000 -0.00017516  0.00000005 -0.00000009
                   Z -0.00189649 -0.00031117  0.00000012  0.00054723  0.00007920
               TOTAL  0.00189649  0.00031117  0.00047528  0.00054723  0.00007920

                           26          27
       FREQUENCY:      3154.83     3229.22  
        SYMMETRY:         A'          A'  
    REDUCED MASS:      1.08860     1.11504
    IR INTENSITY:      0.20095     0.56244

  1   C            X  0.04375684  0.03283861
                   Y  0.00208274 -0.08658328
                   Z  0.00000000 -0.00000000
  2   C            X -0.05958474  0.01128152
                   Y  0.03194304 -0.00661520
                   Z -0.00000000  0.00000000
  3   C            X -0.01604282  0.00088701
                   Y -0.00179009  0.00081866
                   Z  0.00000019 -0.00000012
  4   H            X -0.43048479 -0.47459211
                   Y  0.25937690  0.27201679
                   Z  0.00000007 -0.00000008
  5   H            X -0.00990627  0.05902267
                   Y -0.23412994  0.75351593
                   Z -0.00000003  0.00000004
  6   H            X  0.62893046 -0.10987774
                   Y -0.42111988  0.07305693
                   Z -0.00000011  0.00000015
  7   H            X  0.01434997  0.00061321
                   Y -0.01584054  0.00248618
                   Z -0.03398883  0.00183046
  8   H            X  0.01434918  0.00061352
                   Y -0.01583972  0.00248583
                   Z  0.03398671 -0.00182919
  9   H            X  0.16223520 -0.01167513
                   Y  0.04373990 -0.00362479
                   Z  0.00000001  0.00000000

 TRANS. SAYVETZ    X -0.00000557 -0.00000332
                   Y  0.00001167 -0.00001387
                   Z  0.00000001 -0.00000001
               TOTAL  0.00001293  0.00001426

   ROT. SAYVETZ    X  0.00000000  0.00000008
                   Y  0.00000016 -0.00000005
                   Z  0.00045550 -0.00008269
               TOTAL  0.00045550  0.00008269

 REFERENCE ON SAYVETZ CONDITIONS - A. SAYVETZ, J.CHEM.PHYS., 7, 383-389(1939).

 NOTE - THE MODES J,K ARE ORTHONORMALIZED ACCORDING TO
 SUM ON I   M(I) * (X(I,J)*X(I,K) + Y(I,J)*Y(I,K) + Z(I,J)*Z(I,K)) = DELTA(J,K)

  MODE FREQ(CM**-1)  SYMMETRY  RED. MASS  IR INTENS.
     1     220.485    A''      1.093022    0.012857
     2      10.018    A''      2.724805    0.002039
     3       6.565    A'       2.596266    0.001833
     4       0.461    A''      4.679126    0.000000
     5       0.046    A'       4.668201    0.000000
     6       0.427    A''      4.672675    0.000000
     7      13.785    A''      1.440926    0.000058
     8     415.415    A'       1.988180    0.010048
     9     590.083    A''      1.309349    0.271915
    10     925.196    A'       2.032735    0.011039
    11     931.975    A''      1.331822    0.730073
    12     980.930    A'       1.329959    0.013825
    13    1023.365    A''      1.052628    0.402021
    14    1066.228    A''      1.479856    0.002818
    15    1184.443    A'       1.734053    0.140876
    16    1343.852    A'       1.245323    0.014946
    17    1433.491    A'       1.183368    0.022140
    18    1472.317    A'       1.222362    0.041739
    19    1520.753    A'       1.050626    0.109337
    20    1522.664    A''      1.044063    0.122223
    21    1730.764    A'       4.342969    0.189218
    22    3042.816    A'       1.037863    0.528474
    23    3093.610    A''      1.100928    0.529322
    24    3119.895    A'       1.098611    0.351145
    25    3147.351    A'       1.063972    0.657063
    26    3154.830    A'       1.088599    0.200945
    27    3229.218    A'       1.115041    0.562444

     -------------------------------
     THERMOCHEMISTRY AT T=  298.15 K
     -------------------------------

 USING IDEAL GAS, RIGID ROTOR, HARMONIC NORMAL MODE APPROXIMATIONS.
 P=  1.01325E+05 PASCAL.
 ALL FREQUENCIES ARE SCALED BY   1.00000
 THE MOMENTS OF INERTIA ARE (IN AMU*BOHR**2)
             38.88489           196.13078           223.80573
 THE ROTATIONAL SYMMETRY NUMBER IS  1.0
 THE ROTATIONAL CONSTANTS ARE (IN GHZ)
     46.36990     9.19330     8.05649
   1 IMAGINARY FREQUENCY VIBRATION(S) IS(ARE) EXCLUDED
     FROM THE FOLLOWING THERMOCHEMICAL ANALYSIS.
      8 -     27 VIBRATIONAL MODES ARE USED IN THERMOCHEMISTRY.
 THE HARMONIC ZERO POINT ENERGY IS (SCALED BY   1.000)
        0.079575 HARTREE/MOLECULE    17464.597802 CM**-1/MOLECULE 
       49.933841 KCAL/MOL              208.923190 KJ/MOL

               Q               LN Q
 ELEC.     1.00000E+00       0.000000
 TRANS.    1.07166E+07      16.187301
 ROT.      1.47891E+04       9.601642
 VIB.      1.29334E+00       0.257231
 TOT.      2.04979E+11      26.046174

              E         H         G         CV        CP        S
           KJ/MOL    KJ/MOL    KJ/MOL   J/MOL-K   J/MOL-K   J/MOL-K
 ELEC.      0.000     0.000     0.000     0.000     0.000     0.000
 TRANS.     3.718     6.197   -40.127    12.472    20.786   155.374
 ROT.       3.718     3.718   -23.802    12.472    12.472    92.304
 VIB.     210.784   210.784   208.286    21.620    21.620     8.381
 TOTAL    218.221   220.700   144.356    46.563    54.878   256.058
 VIB. THERMAL CORRECTION E(T)-E(0) = H(T)-H(0) =      1861.140 J/MOL

              E         H         G         CV        CP        S
         KCAL/MOL  KCAL/MOL  KCAL/MOL CAL/MOL-K CAL/MOL-K CAL/MOL-K
 ELEC.      0.000     0.000     0.000     0.000     0.000     0.000
 TRANS.     0.889     1.481    -9.591     2.981     4.968    37.135
 ROT.       0.889     0.889    -5.689     2.981     2.981    22.061
 VIB.      50.379    50.379    49.781     5.167     5.167     2.003
 TOTAL     52.156    52.749    34.502    11.129    13.116    61.199
 VIB. THERMAL CORRECTION E(T)-E(0) = H(T)-H(0) =       444.823 CAL/MOL
 ......END OF NORMAL COORDINATE ANALYSIS......
 STEP CPU TIME =     0.00 TOTAL CPU TIME =        453.9 (      7.6 MIN)
 TOTAL WALL CLOCK TIME=        512.2 SECONDS, CPU UTILIZATION IS    88.62%
               1075896  WORDS OF DYNAMIC MEMORY USED
 EXECUTION OF GAMESS TERMINATED NORMALLY Tue Oct  4 20:54:46 2022
 DDI: 263640 bytes (0.3 MB / 0 MWords) used by master data server.

 ----------------------------------------
 CPU timing information for all processes
 ========================================
 0: 451.74 + 2.823 = 453.898
 ----------------------------------------
 ddikick.x: exited gracefully.
----- accounting info -----
Files used on the master node chemcompute-node-1.novalocal were:
-rw-r--r--. 1 chemcomp chemcomp      960 Oct  4 20:46 /scratch/120778/460730.F05
-rw-rw-r--. 1 chemcomp chemcomp 65536000 Oct  4 20:54 /scratch/120778/460730.F10
-rw-rw-r--. 1 chemcomp chemcomp  4614952 Oct  4 20:54 /scratch/120778/460730.F22
Tue Oct  4 20:54:49 UTC 2022
0.101u 0.040s 8:35.68 0.0%	0+0k 8+208io 0pf+0w
Finishing Up...
Looking for IR data...
Looking for Raman data...
vibramans not found
Looking for thermodynamics data...
Looking for UV-Vis data...
chemcompute.org
{'UTCtimestamp': '2022-10-04T20:54:51.339186', 'cluster': 'jetstream2', 'clusterJobNumber': '120778', 'status': 'COMPLETE', 'nodeList': 'chemcompute-node-1'}
120778
